----- GAMESS execution script 'rungms' -----
This job is running on host glados12.cerit-sc.cz
under operating system Linux at Thu Mar 2 11:28:20 CET 2023
PBS has assigned the following compute nodes to this run:
glados12.cerit-sc.cz
Available scratch disk space (Kbyte units) at beginning of the job is
Filesystem      1K-blocks      Used  Available Use% Mounted on
/dev/sdb       3405764784 365418528 3040329872  11% /scratch.ssd
GAMESS temporary binary files will be written to /scratch.ssd/wrojasv/job_14600586.meta-pbs.metacentrum.cz/tmp
GAMESS supplementary output files will be written to /scratch.ssd/wrojasv/job_14600586.meta-pbs.metacentrum.cz
Copying input file bromide.inp to your run's scratch directory...
MPI kickoff will run GAMESS on 1 cores in 1 nodes.
The binary to be executed is /software/gamess/dec2014/bin/gamess.00.x
MPI will run 1 compute processes and 1 data servers,
    placing  of each process type onto each node.
The scratch disk space on each node is /scratch.ssd/wrojasv/job_14600586.meta-pbs.metacentrum.cz/tmp, with free space
Filesystem      1K-blocks      Used  Available Use% Mounted on
/dev/sdb       3405764784 366211404 3039536996  11% /scratch.ssd
          ******************************************************
          *         GAMESS VERSION =  5 DEC 2014 (R1)          *
          *             FROM IOWA STATE UNIVERSITY             *
          * M.W.SCHMIDT, K.K.BALDRIDGE, J.A.BOATZ, S.T.ELBERT, *
          *   M.S.GORDON, J.H.JENSEN, S.KOSEKI, N.MATSUNAGA,   *
          *          K.A.NGUYEN, S.J.SU, T.L.WINDUS,           *
          *       TOGETHER WITH M.DUPUIS, J.A.MONTGOMERY       *
          *         J.COMPUT.CHEM.  14, 1347-1363(1993)        *
          **************** 64 BIT INTEL VERSION ****************

  SINCE 1993, STUDENTS AND POSTDOCS WORKING AT IOWA STATE UNIVERSITY
  AND ALSO IN THEIR VARIOUS JOBS AFTER LEAVING ISU HAVE MADE IMPORTANT
  CONTRIBUTIONS TO THE CODE:
     IVANA ADAMOVIC, CHRISTINE AIKENS, YURI ALEXEEV, POOJA ARORA,
     ANDREY ASADCHEV, ROB BELL, PRADIPTA BANDYOPADHYAY, JONATHAN BENTZ,
     BRETT BODE, KURT BRORSEN, CALEB CARLIN, GALINA CHABAN, WEI CHEN,
     CHEOL HO CHOI, PAUL DAY, ALBERT DEFUSCO, NUWAN DESILVA, TIM DUDLEY,
     DMITRI FEDOROV, GRAHAM FLETCHER, MARK FREITAG, KURT GLAESEMANN,
     DAN KEMP, GRANT MERRILL, NORIYUKI MINEZAWA, JONATHAN MULLIN,
     TAKESHI NAGATA, SEAN NEDD, HEATHER NETZLOFF, BOSILJKA NJEGIC, RYAN OLSON,
     MIKE PAK, SPENCER PRUITT, LUKE ROSKOP, JIM SHOEMAKER, LYUDMILA SLIPCHENKO,
     TONY SMITH, SAROM SOK, JIE SONG, TETSUYA TAKETSUGU, SIMON WEBB,
     PENG XU, SOOHAENG YOO, FEDERICO ZAHARIEV

  ADDITIONAL CODE HAS BEEN PROVIDED BY COLLABORATORS IN OTHER GROUPS:
     IOWA STATE UNIVERSITY:
          JOE IVANIC, AARON WEST, LAIMUTIS BYTAUTAS, KLAUS RUEDENBERG
     UNIVERSITY OF TOKYO: KIMIHIKO HIRAO, TAKAHITO NAKAJIMA,
          TAKAO TSUNEDA, MUNEAKI KAMIYA, SUSUMU YANAGISAWA,
          KIYOSHI YAGI, MAHITO CHIBA, SEIKEN TOKURA, NAOAKI KAWAKAMI
     UNIVERSITY OF AARHUS: FRANK JENSEN
     UNIVERSITY OF IOWA: VISVALDAS KAIRYS, HUI LI
     NATIONAL INST. OF STANDARDS AND TECHNOLOGY: WALT STEVENS, DAVID GARMER
     UNIVERSITY OF PISA: BENEDETTA MENNUCCI, JACOPO TOMASI
     UNIVERSITY OF MEMPHIS: HENRY KURTZ, PRAKASHAN KORAMBATH
     UNIVERSITY OF ALBERTA: TOBY ZENG, MARIUSZ KLOBUKOWSKI
     UNIVERSITY OF NEW ENGLAND: MARK SPACKMAN
     MIE UNIVERSITY: HIROAKI UMEDA
     NAT. INST. OF ADVANCED INDUSTRIAL SCIENCE AND TECHNOLOGY: KAZUO KITAURA
     MICHIGAN STATE UNIVERSITY:
          KAROL KOWALSKI, MARTA WLOCH, JEFFREY GOUR, JESSE LUTZ,
          WEI LI, PIOTR PIECUCH
     UNIVERSITY OF SILESIA: MONIKA MUSIAL, STANISLAW KUCHARSKI
     FACULTES UNIVERSITAIRES NOTRE-DAME DE LA PAIX:
          OLIVIER QUINET, BENOIT CHAMPAGNE
     UNIVERSITY OF CALIFORNIA - SANTA BARBARA: BERNARD KIRTMAN
     INSTITUTE FOR MOLECULAR SCIENCE:
          KAZUYA ISHIMURA, MICHIO KATOUDA, AND SHIGERU NAGASE
     UNIVERSITY OF NOTRE DAME: ANNA POMOGAEVA, DAN CHIPMAN
     KYUSHU UNIVERSITY:
          HARUYUKI NAKANO,
          FENG LONG GU, JACEK KORCHOWIEC, MARCIN MAKOWSKI, AND YURIKO AOKI,
          HIROTOSHI MORI AND EISAKU MIYOSHI
     PENNSYLVANIA STATE UNIVERSITY:
          TZVETELIN IORDANOV, CHET SWALINA, JONATHAN SKONE,
          SHARON HAMMES-SCHIFFER
     WASEDA UNIVERSITY:
          MASATO KOBAYASHI, TOMOKO AKAMA, TSUGUKI TOUMA,
          TAKESHI YOSHIKAWA, YASUHIRO IKABATA, HIROMI NAKAI
     NANJING UNIVERSITY: SHUHUA LI
     UNIVERSITY OF NEBRASKA:
          PEIFENG SU, DEJUN SI, NANDUN THELLAMUREGE, YALI WANG, HUI LI
     UNIVERSITY OF ZURICH: ROBERTO PEVERATI, KIM BALDRIDGE
     N. COPERNICUS UNIVERSITY AND JACKSON STATE UNIVERSITY:
          MARIA BARYSZ
     UNIVERSITY OF COPENHAGEN: CASPER STEINMANN
     TOKYO INSTITUTE OF TECHNOLOGY: HIROYA NAKATA
     NAGOYA UNIVERSITY: YOSHIO NISHIMOTO, STEPHAN IRLE

 EXECUTION OF GAMESS BEGUN Thu Mar  2 11:28:25 2023

            ECHO OF THE FIRST FEW INPUT CARDS -
 INPUT CARD> $BASIS GBASIS=N31 NGAUSS=6 $END                                                
 INPUT CARD> $statpt opttol=0.0005 nstep=100 $end                                           
 INPUT CARD> $CONTRL SCFTYP=RHF RUNTYP=OPTIMIZE $END                                        
 INPUT CARD>                                                                                
 INPUT CARD> $DATA                                                                          
 INPUT CARD>Title                                                                           
 INPUT CARD>C1                                                                              
 INPUT CARD> BR         35.0  -0.1045577767   2.8187362901   0.3152523527                   
 INPUT CARD> C           6.0  -0.0156183266   0.9511584433   0.1251465813                   
 INPUT CARD> C           6.0   1.2085812380   0.3261712078  -0.1444424425                   
 INPUT CARD> C           6.0  -1.1779432351   0.1752826261   0.2328307146                   
 INPUT CARD> BR         35.0   2.7617837635   1.3673081211  -0.3201093544                   
 INPUT CARD> C           6.0   1.2689641792  -1.0723614033  -0.2788508169                   
 INPUT CARD> BR         35.0  -2.8321412465   1.0191167642   0.5213545736                   
 INPUT CARD> C           6.0  -1.1032360092  -1.2215769267   0.1222477468                   
 INPUT CARD> BR         35.0   2.9056509601  -1.8638285437  -0.7747357999                   
 INPUT CARD> C           6.0   0.1284901983  -1.8699101359  -0.1004831551                   
 INPUT CARD> BR         35.0  -2.7068950382  -2.2148247685   0.2267923530                   
 INPUT CARD> C           6.0   0.1692702313  -3.4104566827  -0.1786360458                   
 INPUT CARD> C           6.0   1.2357118621  -4.1586816058   0.6622286013                   
 INPUT CARD> H           1.0   0.2546362759  -3.7127417024  -1.2263124257                   
 INPUT CARD> H           1.0  -0.7984927966  -3.7566171679   0.1564160942                   
 INPUT CARD> H           1.0   2.1496443554  -4.2879504461   0.1089573574                   
 INPUT CARD> H           1.0   0.8517496392  -5.1444940926   0.9127998715                   
 INPUT CARD> H           1.0   1.4588017260  -3.6351699771   1.5873037941                   
 INPUT CARD>  $END                                                                          
    1000000 WORDS OF MEMORY AVAILABLE

     BASIS OPTIONS
     -------------
     GBASIS=N31          IGAUSS=       6      POLAR=NONE    
     NDFUNC=       0     NFFUNC=       0     DIFFSP=       F
     NPFUNC=       0      DIFFS=       F     BASNAM=        


     RUN TITLE
     ---------
 Title                                                                           

 THE POINT GROUP OF THE MOLECULE IS C1      
 THE ORDER OF THE PRINCIPAL AXIS IS     0

 ATOM      ATOMIC                      COORDINATES (BOHR)
           CHARGE         X                   Y                   Z
 BR         35.0    -0.1975855478        5.3266392199        0.5957405636
 C           6.0    -0.0295143577        1.7974288287        0.2364927470
 C           6.0     2.2838873737        0.6163742078       -0.2729566373
 C           6.0    -2.2259899434        0.3312361337        0.4399862521
 BR         35.0     5.2190145504        2.5838376897       -0.6049189659
 C           6.0     2.3979945869       -2.0264692120       -0.5269516354
 BR         35.0    -5.3519709144        1.9258514338        0.9852172865
 C           6.0    -2.0848137572       -2.3084456644        0.2310147441
 BR         35.0     5.4908841305       -3.5221252357       -1.4640383747
 C           6.0     0.2428112669       -3.5336177785       -0.1898856295
 BR         35.0    -5.1152898997       -4.1854119233        0.4285754033
 C           6.0     0.3198743550       -6.4448286233       -0.3375731781
 C           6.0     2.3351568191       -7.8587687051        1.2514305977
 H           1.0     0.4811927880       -7.0160644807       -2.3173944599
 H           1.0    -1.5089325887       -7.0989770881        0.2955835581
 H           1.0     4.0622388028       -8.1030513921        0.2058995498
 H           1.0     1.6095734282       -9.7216841805        1.7249416388
 H           1.0     2.7567355326       -6.8694751755        2.9995692301

          INTERNUCLEAR DISTANCES (ANGS.)
          ------------------------------

                1 BR         2 C          3 C          4 C          5 BR    

   1 BR      0.0000000    1.8793343 *  2.8545637 *  2.8542594 *  3.2750942  
   2 C       1.8793343 *  0.0000000    1.4006969 *  1.4016342 *  2.8434830 *
   3 C       2.8545637 *  1.4006969 *  0.0000000    2.4208679 *  1.8781009 *
   4 C       2.8542594 *  1.4016342 *  2.4208679 *  0.0000000    4.1530852  
   5 BR      3.2750942    2.8434830 *  1.8781009 *  4.1530852    0.0000000  
   6 C       4.1689522    2.4306375 *  1.4062735 *  2.7938843 *  2.8604545 *
   7 BR      3.2742664    2.8450660 *  4.1534200    1.8792746 *  5.6675652  
   8 C       4.1663821    2.4297530 *  2.7948429 *  1.4032200 *  4.6729416  
   9 BR      5.6723755    4.1554487    2.8413754 *  4.6742814    3.2661334  
  10 C       4.7128073    2.8337438 *  2.4477137 *  2.4496285 *  4.1787621  
  11 BR      5.6671617    4.1565312    4.6824599    2.8373127 *  6.5602763  
  12 C       6.2547384    4.3760889    3.8786241    3.8525077    5.4376629  
  13 C       7.1134433    5.2881707    4.5569023    4.9792931    5.8163946  
  14 H       6.7205392    4.8632750    4.2887377    4.3929621    5.7370636  
  15 H       6.6137771    4.7725278    4.5593884    3.9509059    6.2575759  
  16 H       7.4584838    5.6689405    4.7159230    5.5685396    5.7044511  
  17 H       8.0426752    6.2072300    5.5833027    5.7342860    6.8972359  
  18 H       6.7612953    5.0345036    4.3305634    4.8276879    5.5100612  

                6 C          7 BR         8 C          9 BR        10 C     

   1 BR      4.1689522    3.2742664    4.1663821    5.6723755    4.7128073  
   2 C       2.4306375 *  2.8450660 *  2.4297530 *  4.1554487    2.8337438 *
   3 C       1.4062735 *  4.1534200    2.7948429 *  2.8413754 *  2.4477137 *
   4 C       2.7938843 *  1.8792746 *  1.4032200 *  4.6742814    2.4496285 *
   5 BR      2.8604545 *  5.6675652    4.6729416    3.2661334    4.1787621  
   6 C       0.0000000    4.6726518    2.4104935 *  1.8844272 *  1.4030609 *
   7 BR      4.6726518    0.0000000    2.8581651 *  6.5508384    4.1831205  
   8 C       2.4104935 *  2.8581651 *  0.0000000    4.1579131    1.4096434 *
   9 BR      1.8844272 *  6.5508384    4.1579131    0.0000000    2.8578446 *
  10 C       1.4030609 *  4.1831205    1.4096434 *  2.8578446 *  0.0000000  
  11 BR      4.1675357    3.2497433    1.8892308 *  5.7119987    2.8749756 *
  12 C       2.5857415 *  5.3962560    2.5497054 *  3.1992457    1.5430666 *
  13 C       3.2267799    6.5861119    3.7932625    3.1811812    2.6544574 *
  14 H       2.9829772 *  5.9137991    3.1413904    3.2634767    2.1631996 *
  15 H       3.4160013    5.2035123    2.5535201 *  4.2626721    2.1177720 *
  16 H       3.3564871    7.2906256    4.4703528    2.6886477 *  3.1584566  
  17 H       4.2633747    7.1912711    4.4537872    4.2224464    3.5032480  
  18 H       3.1759344    6.4195657    3.8125920    3.2878951    2.7810962 *

               11 BR        12 C         13 C         14 H         15 H     

   1 BR      5.6671617    6.2547384    7.1134433    6.7205392    6.6137771  
   2 C       4.1565312    4.3760889    5.2881707    4.8632750    4.7725278  
   3 C       4.6824599    3.8786241    4.5569023    4.2887377    4.5593884  
   4 C       2.8373127 *  3.8525077    4.9792931    4.3929621    3.9509059  
   5 BR      6.5602763    5.4376629    5.8163946    5.7370636    6.2575759  
   6 C       4.1675357    2.5857415 *  3.2267799    2.9829772 *  3.4160013  
   7 BR      3.2497433    5.3962560    6.5861119    5.9137991    5.2035123  
   8 C       1.8892308 *  2.5497054 *  3.7932625    3.1413904    2.5535201 *
   9 BR      5.7119987    3.1992457    3.1811812    3.2634767    4.2626721  
  10 C       2.8749756 *  1.5430666 *  2.6544574 *  2.1631996 *  2.1177720 *
  11 BR      0.0000000    3.1410563    4.4172767    3.6229734    2.4543993 *
  12 C       3.1410563    0.0000000    1.5505456 *  1.0937502 *  1.0810422 *
  13 C       4.4172767    1.5505456 *  0.0000000    2.1743870 *  2.1343596 *
  14 H       3.6229734    1.0937502 *  2.1743870 *  0.0000000    1.7386616 *
  15 H       2.4543993 *  1.0810422 *  2.1343596 *  1.7386616 *  0.0000000  
  16 H       5.2818283    2.1850828 *  1.0761469 *  2.3884862 *  2.9960107 *
  17 H       4.6602061    2.1596056 *  1.0872163 *  2.6423968 *  2.2850862 *
  18 H       4.6066692    2.1981654 *  1.0860928 *  3.0614487    2.6753631 *

               16 H         17 H         18 H     

   1 BR      7.4584838    8.0426752    6.7612953  
   2 C       5.6689405    6.2072300    5.0345036  
   3 C       4.7159230    5.5833027    4.3305634  
   4 C       5.5685396    5.7342860    4.8276879  
   5 BR      5.7044511    6.8972359    5.5100612  
   6 C       3.3564871    4.2633747    3.1759344  
   7 BR      7.2906256    7.1912711    6.4195657  
   8 C       4.4703528    4.4537872    3.8125920  
   9 BR      2.6886477 *  4.2224464    3.2878951  
  10 C       3.1584566    3.5032480    2.7810962 *
  11 BR      5.2818283    4.6602061    4.6066692  
  12 C       2.1850828 *  2.1596056 *  2.1981654 *
  13 C       1.0761469 *  1.0872163 *  1.0860928 *
  14 H       2.3884862 *  2.6423968 *  3.0614487  
  15 H       2.9960107 *  2.2850862 *  2.6753631 *
  16 H       0.0000000    1.7505315 *  1.7575250 *
  17 H       1.7505315 *  0.0000000    1.7611153 *
  18 H       1.7575250 *  1.7611153 *  0.0000000  

  * ... LESS THAN  3.000


     ATOMIC BASIS SET
     ----------------
 THE CONTRACTED PRIMITIVE FUNCTIONS HAVE BEEN UNNORMALIZED
 THE CONTRACTED BASIS FUNCTIONS ARE NOW NORMALIZED TO UNITY

  SHELL TYPE  PRIMITIVE        EXPONENT          CONTRACTION COEFFICIENT(S)

 BR        

      1   S       1        113718.2000000    0.001717696020
      1   S       2         17074.4400000    0.013167440157
      1   S       3          3889.5760000    0.065045530775
      1   S       4          1097.0960000    0.226950502703
      1   S       5           352.0624000    0.476835705678
      1   S       6           120.7002000    0.358367704268

      2   L       7          2471.1380000    0.002243686934    0.003790181843
      2   L       8           589.3838000    0.029948529125    0.029959788758
      2   L       9           191.8738000    0.125600896330    0.131822794533
      2   L      10            72.9533900   -0.000983278571    0.343270785764
      2   L      11            30.0583900   -0.601314082428    0.464234480747
      2   L      12            12.5292700   -0.491398285640    0.207938691376

      3   L      13           109.6411000   -0.005975683203   -0.006907482641
      3   L      14            38.5894800    0.055421221885   -0.030414318419
      3   L      15            16.3781800    0.268120009121    0.046027247607
      3   L      16             7.2218360   -0.154360605251    0.365068881019
      3   L      17             3.2636970   -0.720630624515    0.494923174267
      3   L      18             1.4654990   -0.331643711282    0.209039389131

      4   L      19             2.1036510    0.302902925312   -0.028267138833
      4   L      20             0.7547050   -0.215265917988    0.350306485538
      4   L      21             0.3005140   -0.963394180505    0.718244570349

      5   L      22             0.1090710    1.000000000000    1.000000000000

      6   D      23            62.2551400    0.077042284602
      6   D      24            17.3128400    0.370738374024
      6   D      25             5.6079150    0.709762750271

      7   D      26             1.7464860    1.000000000000

 C         

      8   S      27          3047.5248800    0.001834737132
      8   S      28           457.3695180    0.014037322813
      8   S      29           103.9486850    0.068842622264
      8   S      30            29.2101553    0.232184443216
      8   S      31             9.2866630    0.467941348435
      8   S      32             3.1639270    0.362311985337

      9   L      33             7.8682723   -0.119332419775    0.068999066591
      9   L      34             1.8812885   -0.160854151696    0.316423960957
      9   L      35             0.5442493    1.143456437840    0.744308290898

     10   L      36             0.1687145    1.000000000000    1.000000000000

 C         

     11   S      37          3047.5248800    0.001834737132
     11   S      38           457.3695180    0.014037322813
     11   S      39           103.9486850    0.068842622264
     11   S      40            29.2101553    0.232184443216
     11   S      41             9.2866630    0.467941348435
     11   S      42             3.1639270    0.362311985337

     12   L      43             7.8682723   -0.119332419775    0.068999066591
     12   L      44             1.8812885   -0.160854151696    0.316423960957
     12   L      45             0.5442493    1.143456437840    0.744308290898

     13   L      46             0.1687145    1.000000000000    1.000000000000

 C         

     14   S      47          3047.5248800    0.001834737132
     14   S      48           457.3695180    0.014037322813
     14   S      49           103.9486850    0.068842622264
     14   S      50            29.2101553    0.232184443216
     14   S      51             9.2866630    0.467941348435
     14   S      52             3.1639270    0.362311985337

     15   L      53             7.8682723   -0.119332419775    0.068999066591
     15   L      54             1.8812885   -0.160854151696    0.316423960957
     15   L      55             0.5442493    1.143456437840    0.744308290898

     16   L      56             0.1687145    1.000000000000    1.000000000000

 BR        

     17   S      57        113718.2000000    0.001717696020
     17   S      58         17074.4400000    0.013167440157
     17   S      59          3889.5760000    0.065045530775
     17   S      60          1097.0960000    0.226950502703
     17   S      61           352.0624000    0.476835705678
     17   S      62           120.7002000    0.358367704268

     18   L      63          2471.1380000    0.002243686934    0.003790181843
     18   L      64           589.3838000    0.029948529125    0.029959788758
     18   L      65           191.8738000    0.125600896330    0.131822794533
     18   L      66            72.9533900   -0.000983278571    0.343270785764
     18   L      67            30.0583900   -0.601314082428    0.464234480747
     18   L      68            12.5292700   -0.491398285640    0.207938691376

     19   L      69           109.6411000   -0.005975683203   -0.006907482641
     19   L      70            38.5894800    0.055421221885   -0.030414318419
     19   L      71            16.3781800    0.268120009121    0.046027247607
     19   L      72             7.2218360   -0.154360605251    0.365068881019
     19   L      73             3.2636970   -0.720630624515    0.494923174267
     19   L      74             1.4654990   -0.331643711282    0.209039389131

     20   L      75             2.1036510    0.302902925312   -0.028267138833
     20   L      76             0.7547050   -0.215265917988    0.350306485538
     20   L      77             0.3005140   -0.963394180505    0.718244570349

     21   L      78             0.1090710    1.000000000000    1.000000000000

     22   D      79            62.2551400    0.077042284602
     22   D      80            17.3128400    0.370738374024
     22   D      81             5.6079150    0.709762750271

     23   D      82             1.7464860    1.000000000000

 C         

     24   S      83          3047.5248800    0.001834737132
     24   S      84           457.3695180    0.014037322813
     24   S      85           103.9486850    0.068842622264
     24   S      86            29.2101553    0.232184443216
     24   S      87             9.2866630    0.467941348435
     24   S      88             3.1639270    0.362311985337

     25   L      89             7.8682723   -0.119332419775    0.068999066591
     25   L      90             1.8812885   -0.160854151696    0.316423960957
     25   L      91             0.5442493    1.143456437840    0.744308290898

     26   L      92             0.1687145    1.000000000000    1.000000000000

 BR        

     27   S      93        113718.2000000    0.001717696020
     27   S      94         17074.4400000    0.013167440157
     27   S      95          3889.5760000    0.065045530775
     27   S      96          1097.0960000    0.226950502703
     27   S      97           352.0624000    0.476835705678
     27   S      98           120.7002000    0.358367704268

     28   L      99          2471.1380000    0.002243686934    0.003790181843
     28   L     100           589.3838000    0.029948529125    0.029959788758
     28   L     101           191.8738000    0.125600896330    0.131822794533
     28   L     102            72.9533900   -0.000983278571    0.343270785764
     28   L     103            30.0583900   -0.601314082428    0.464234480747
     28   L     104            12.5292700   -0.491398285640    0.207938691376

     29   L     105           109.6411000   -0.005975683203   -0.006907482641
     29   L     106            38.5894800    0.055421221885   -0.030414318419
     29   L     107            16.3781800    0.268120009121    0.046027247607
     29   L     108             7.2218360   -0.154360605251    0.365068881019
     29   L     109             3.2636970   -0.720630624515    0.494923174267
     29   L     110             1.4654990   -0.331643711282    0.209039389131

     30   L     111             2.1036510    0.302902925312   -0.028267138833
     30   L     112             0.7547050   -0.215265917988    0.350306485538
     30   L     113             0.3005140   -0.963394180505    0.718244570349

     31   L     114             0.1090710    1.000000000000    1.000000000000

     32   D     115            62.2551400    0.077042284602
     32   D     116            17.3128400    0.370738374024
     32   D     117             5.6079150    0.709762750271

     33   D     118             1.7464860    1.000000000000

 C         

     34   S     119          3047.5248800    0.001834737132
     34   S     120           457.3695180    0.014037322813
     34   S     121           103.9486850    0.068842622264
     34   S     122            29.2101553    0.232184443216
     34   S     123             9.2866630    0.467941348435
     34   S     124             3.1639270    0.362311985337

     35   L     125             7.8682723   -0.119332419775    0.068999066591
     35   L     126             1.8812885   -0.160854151696    0.316423960957
     35   L     127             0.5442493    1.143456437840    0.744308290898

     36   L     128             0.1687145    1.000000000000    1.000000000000

 BR        

     37   S     129        113718.2000000    0.001717696020
     37   S     130         17074.4400000    0.013167440157
     37   S     131          3889.5760000    0.065045530775
     37   S     132          1097.0960000    0.226950502703
     37   S     133           352.0624000    0.476835705678
     37   S     134           120.7002000    0.358367704268

     38   L     135          2471.1380000    0.002243686934    0.003790181843
     38   L     136           589.3838000    0.029948529125    0.029959788758
     38   L     137           191.8738000    0.125600896330    0.131822794533
     38   L     138            72.9533900   -0.000983278571    0.343270785764
     38   L     139            30.0583900   -0.601314082428    0.464234480747
     38   L     140            12.5292700   -0.491398285640    0.207938691376

     39   L     141           109.6411000   -0.005975683203   -0.006907482641
     39   L     142            38.5894800    0.055421221885   -0.030414318419
     39   L     143            16.3781800    0.268120009121    0.046027247607
     39   L     144             7.2218360   -0.154360605251    0.365068881019
     39   L     145             3.2636970   -0.720630624515    0.494923174267
     39   L     146             1.4654990   -0.331643711282    0.209039389131

     40   L     147             2.1036510    0.302902925312   -0.028267138833
     40   L     148             0.7547050   -0.215265917988    0.350306485538
     40   L     149             0.3005140   -0.963394180505    0.718244570349

     41   L     150             0.1090710    1.000000000000    1.000000000000

     42   D     151            62.2551400    0.077042284602
     42   D     152            17.3128400    0.370738374024
     42   D     153             5.6079150    0.709762750271

     43   D     154             1.7464860    1.000000000000

 C         

     44   S     155          3047.5248800    0.001834737132
     44   S     156           457.3695180    0.014037322813
     44   S     157           103.9486850    0.068842622264
     44   S     158            29.2101553    0.232184443216
     44   S     159             9.2866630    0.467941348435
     44   S     160             3.1639270    0.362311985337

     45   L     161             7.8682723   -0.119332419775    0.068999066591
     45   L     162             1.8812885   -0.160854151696    0.316423960957
     45   L     163             0.5442493    1.143456437840    0.744308290898

     46   L     164             0.1687145    1.000000000000    1.000000000000

 BR        

     47   S     165        113718.2000000    0.001717696020
     47   S     166         17074.4400000    0.013167440157
     47   S     167          3889.5760000    0.065045530775
     47   S     168          1097.0960000    0.226950502703
     47   S     169           352.0624000    0.476835705678
     47   S     170           120.7002000    0.358367704268

     48   L     171          2471.1380000    0.002243686934    0.003790181843
     48   L     172           589.3838000    0.029948529125    0.029959788758
     48   L     173           191.8738000    0.125600896330    0.131822794533
     48   L     174            72.9533900   -0.000983278571    0.343270785764
     48   L     175            30.0583900   -0.601314082428    0.464234480747
     48   L     176            12.5292700   -0.491398285640    0.207938691376

     49   L     177           109.6411000   -0.005975683203   -0.006907482641
     49   L     178            38.5894800    0.055421221885   -0.030414318419
     49   L     179            16.3781800    0.268120009121    0.046027247607
     49   L     180             7.2218360   -0.154360605251    0.365068881019
     49   L     181             3.2636970   -0.720630624515    0.494923174267
     49   L     182             1.4654990   -0.331643711282    0.209039389131

     50   L     183             2.1036510    0.302902925312   -0.028267138833
     50   L     184             0.7547050   -0.215265917988    0.350306485538
     50   L     185             0.3005140   -0.963394180505    0.718244570349

     51   L     186             0.1090710    1.000000000000    1.000000000000

     52   D     187            62.2551400    0.077042284602
     52   D     188            17.3128400    0.370738374024
     52   D     189             5.6079150    0.709762750271

     53   D     190             1.7464860    1.000000000000

 C         

     54   S     191          3047.5248800    0.001834737132
     54   S     192           457.3695180    0.014037322813
     54   S     193           103.9486850    0.068842622264
     54   S     194            29.2101553    0.232184443216
     54   S     195             9.2866630    0.467941348435
     54   S     196             3.1639270    0.362311985337

     55   L     197             7.8682723   -0.119332419775    0.068999066591
     55   L     198             1.8812885   -0.160854151696    0.316423960957
     55   L     199             0.5442493    1.143456437840    0.744308290898

     56   L     200             0.1687145    1.000000000000    1.000000000000

 C         

     57   S     201          3047.5248800    0.001834737132
     57   S     202           457.3695180    0.014037322813
     57   S     203           103.9486850    0.068842622264
     57   S     204            29.2101553    0.232184443216
     57   S     205             9.2866630    0.467941348435
     57   S     206             3.1639270    0.362311985337

     58   L     207             7.8682723   -0.119332419775    0.068999066591
     58   L     208             1.8812885   -0.160854151696    0.316423960957
     58   L     209             0.5442493    1.143456437840    0.744308290898

     59   L     210             0.1687145    1.000000000000    1.000000000000

 H         

     60   S     211            18.7311370    0.033494604338
     60   S     212             2.8253944    0.234726953484
     60   S     213             0.6401217    0.813757326146

     61   S     214             0.1612778    1.000000000000

 H         

     62   S     215            18.7311370    0.033494604338
     62   S     216             2.8253944    0.234726953484
     62   S     217             0.6401217    0.813757326146

     63   S     218             0.1612778    1.000000000000

 H         

     64   S     219            18.7311370    0.033494604338
     64   S     220             2.8253944    0.234726953484
     64   S     221             0.6401217    0.813757326146

     65   S     222             0.1612778    1.000000000000

 H         

     66   S     223            18.7311370    0.033494604338
     66   S     224             2.8253944    0.234726953484
     66   S     225             0.6401217    0.813757326146

     67   S     226             0.1612778    1.000000000000

 H         

     68   S     227            18.7311370    0.033494604338
     68   S     228             2.8253944    0.234726953484
     68   S     229             0.6401217    0.813757326146

     69   S     230             0.1612778    1.000000000000

 TOTAL NUMBER OF BASIS SET SHELLS             =   69
 NUMBER OF CARTESIAN GAUSSIAN BASIS FUNCTIONS =  227
 NUMBER OF ELECTRONS                          =  228
 CHARGE OF MOLECULE                           =    0
 SPIN MULTIPLICITY                            =    1
 NUMBER OF OCCUPIED ORBITALS (ALPHA)          =  114
 NUMBER OF OCCUPIED ORBITALS (BETA )          =  114
 TOTAL NUMBER OF ATOMS                        =   18
 THE NUCLEAR REPULSION ENERGY IS     3134.8846532111

     $CONTRL OPTIONS
     ---------------
 SCFTYP=RHF          RUNTYP=OPTIMIZE     EXETYP=RUN     
 MPLEVL=       0     CITYP =NONE         CCTYP =NONE         VBTYP =NONE    
 DFTTYP=NONE         TDDFT =NONE    
 MULT  =       1     ICHARG=       0     NZVAR =       0     COORD =UNIQUE  
 PP    =NONE         RELWFN=NONE         LOCAL =NONE         NUMGRD=       F
 ISPHER=      -1     NOSYM =       0     MAXIT =      30     UNITS =ANGS    
 PLTORB=       F     MOLPLT=       F     AIMPAC=       F     FRIEND=        
 NPRINT=       7     IREST =       0     GEOM  =INPUT   
 NORMF =       0     NORMP =       0     ITOL  =      20     ICUT  =       9
 INTTYP=BEST         GRDTYP=BEST         QMTTOL= 1.0E-06

     $SYSTEM OPTIONS
     ---------------
  REPLICATED MEMORY=     1000000 WORDS (ON EVERY NODE).
 DISTRIBUTED MEMDDI=           0 MILLION WORDS IN AGGREGATE,
 MEMDDI DISTRIBUTED OVER   1 PROCESSORS IS           0 WORDS/PROCESSOR.
 TOTAL MEMORY REQUESTED ON EACH PROCESSOR=     1000000 WORDS.
 TIMLIM=      525600.00 MINUTES, OR     365.0 DAYS.
 PARALL= F  BALTYP=  DLB     KDIAG=    0  COREFL= F
 MXSEQ2=     300 MXSEQ3=     150  mem10=         0

          ----------------
          PROPERTIES INPUT
          ----------------

     MOMENTS            FIELD           POTENTIAL          DENSITY
 IEMOM =       1   IEFLD =       0   IEPOT =       0   IEDEN =       0
 WHERE =COMASS     WHERE =NUCLEI     WHERE =NUCLEI     WHERE =NUCLEI  
 OUTPUT=BOTH       OUTPUT=BOTH       OUTPUT=BOTH       OUTPUT=BOTH    
 IEMINT=       0   IEFINT=       0                     IEDINT=       0
                                                       MORB  =       0
          EXTRAPOLATION IN EFFECT
          SOSCF IN EFFECT
 ORBITAL PRINTING OPTION: NPREO=     1   227     2     1

     -------------------------------
     INTEGRAL TRANSFORMATION OPTIONS
     -------------------------------
     NWORD  =            0
     CUTOFF = 1.0E-09     MPTRAN =       0
     DIRTRF =       F     AOINTS =DUP     

          ----------------------
          INTEGRAL INPUT OPTIONS
          ----------------------
 NOPK  =       1 NORDER=       0 SCHWRZ=       T

     ------------------------------------------
     THE POINT GROUP IS C1 , NAXIS= 0, ORDER= 1
     ------------------------------------------

     DIMENSIONS OF THE SYMMETRY SUBSPACES ARE
 A   =  227

 ..... DONE SETTING UP THE RUN .....
 STEP CPU TIME =     0.07 TOTAL CPU TIME =        0.1 (    0.0 MIN)
 TOTAL WALL CLOCK TIME=        0.4 SECONDS, CPU UTILIZATION IS  17.50%


          -----------------------------
          STATIONARY POINT LOCATION RUN
          -----------------------------

 OBTAINING INITIAL HESSIAN, HESS=GUESS   
 CARTESIAN COORDINATE OPTIMIZATION USING BADGER'S RULE FORCE CONSTANT GUESS

          PARAMETERS CONTROLLING GEOMETRY SEARCH ARE
          METHOD =QA                  UPHESS =BFGS    
          NNEG   =         0          NFRZ   =         0
          NSTEP  =       100          IFOLOW =         1
          HESS   =GUESS               RESTAR =         F
          IHREP  =         0          HSSEND =         F
          NPRT   =         0          NPUN   =         0
          OPTTOL = 5.000E-04          RMIN   = 1.500E-03
          RMAX   = 1.000E-01          RLIM   = 7.000E-02
          DXMAX  = 3.000E-01          PURIFY =         F
          MOVIE  =         F          TRUPD  =         T
          TRMAX  = 5.000E-01          TRMIN  = 5.000E-02
          ITBMAT =         5          STPT   =         F
          STSTEP = 1.000E-02          PROJCT=          T

 BEGINNING GEOMETRY SEARCH POINT NSERCH=   0 ...

 COORDINATES OF ALL ATOMS ARE (ANGS)
   ATOM   CHARGE       X              Y              Z
 ------------------------------------------------------------
 BR         35.0  -0.1045577767   2.8187362901   0.3152523527
 C           6.0  -0.0156183266   0.9511584433   0.1251465813
 C           6.0   1.2085812380   0.3261712078  -0.1444424425
 C           6.0  -1.1779432351   0.1752826261   0.2328307146
 BR         35.0   2.7617837635   1.3673081211  -0.3201093544
 C           6.0   1.2689641792  -1.0723614033  -0.2788508169
 BR         35.0  -2.8321412465   1.0191167642   0.5213545736
 C           6.0  -1.1032360092  -1.2215769267   0.1222477468
 BR         35.0   2.9056509601  -1.8638285437  -0.7747357999
 C           6.0   0.1284901983  -1.8699101359  -0.1004831551
 BR         35.0  -2.7068950382  -2.2148247685   0.2267923530
 C           6.0   0.1692702313  -3.4104566827  -0.1786360458
 C           6.0   1.2357118621  -4.1586816058   0.6622286013
 H           1.0   0.2546362759  -3.7127417024  -1.2263124257
 H           1.0  -0.7984927966  -3.7566171679   0.1564160942
 H           1.0   2.1496443554  -4.2879504461   0.1089573574
 H           1.0   0.8517496392  -5.1444940926   0.9127998715
 H           1.0   1.4588017260  -3.6351699771   1.5873037941

          ********************
          1 ELECTRON INTEGRALS
          ********************
 ...... END OF ONE-ELECTRON INTEGRALS ......
 STEP CPU TIME =     0.07 TOTAL CPU TIME =        0.1 (    0.0 MIN)
 TOTAL WALL CLOCK TIME=        0.5 SECONDS, CPU UTILIZATION IS  26.42%

          -------------
          GUESS OPTIONS
          -------------
          GUESS =HUCKEL            NORB  =       0          NORDER=       0
          MIX   =       F          PRTMO =       F          PUNMO =       F
          TOLZ  = 1.0E-08          TOLE  = 1.0E-05
          SYMDEN=       F          PURIFY=       F

 INITIAL GUESS ORBITALS GENERATED BY HUCKEL   ROUTINE.
 HUCKEL GUESS REQUIRES    467229 WORDS.

 SYMMETRIES FOR INITIAL GUESS ORBITALS FOLLOW.   BOTH SET(S).
   114 ORBITALS ARE OCCUPIED (   78 CORE ORBITALS).
    79=A       80=A       81=A       82=A       83=A       84=A       85=A   
    86=A       87=A       88=A       89=A       90=A       91=A       92=A   
    93=A       94=A       95=A       96=A       97=A       98=A       99=A   
   100=A      101=A      102=A      103=A      104=A      105=A      106=A   
   107=A      108=A      109=A      110=A      111=A      112=A      113=A   
   114=A      115=A      116=A      117=A      118=A      119=A      120=A   
   121=A      122=A      123=A      124=A   
 ...... END OF INITIAL ORBITAL SELECTION ......
 STEP CPU TIME =     0.18 TOTAL CPU TIME =        0.3 (    0.0 MIN)
 TOTAL WALL CLOCK TIME=        0.9 SECONDS, CPU UTILIZATION IS  36.78%

                    ----------------------
                    AO INTEGRAL TECHNOLOGY
                    ----------------------
     S,P,L SHELL ROTATED AXIS INTEGRALS, REPROGRAMMED BY
        KAZUYA ISHIMURA (IMS) AND JOSE SIERRA (SYNSTAR).
     S,P,D,L SHELL ROTATED AXIS INTEGRALS PROGRAMMED BY
        KAZUYA ISHIMURA (INSTITUTE FOR MOLECULAR SCIENCE).
     S,P,D,F,G SHELL TO TOTAL QUARTET ANGULAR MOMENTUM SUM 5,
        ERIC PROGRAM BY GRAHAM FLETCHER (ELORET AND NASA ADVANCED
        SUPERCOMPUTING DIVISION, AMES RESEARCH CENTER).
     S,P,D,F,G,L SHELL GENERAL RYS QUADRATURE PROGRAMMED BY
        MICHEL DUPUIS (PACIFIC NORTHWEST NATIONAL LABORATORY).

          --------------------
          2 ELECTRON INTEGRALS
          --------------------

 THE -PK- OPTION IS OFF, THE INTEGRALS ARE NOT IN SUPERMATRIX FORM.
 STORING   15000 INTEGRALS/RECORD ON DISK, USING 12 BYTES/INTEGRAL.
 TWO ELECTRON INTEGRAL EVALUATION REQUIRES   92811 WORDS OF MEMORY.
 SCHWARZ INEQUALITY OVERHEAD:     19727 INTEGRALS, T=        0.03
 II,JST,KST,LST =  1  1  1  1 NREC =         1 INTLOC =    1
 II,JST,KST,LST =  2  1  1  1 NREC =         1 INTLOC =    2
 II,JST,KST,LST =  3  1  1  1 NREC =         1 INTLOC =   34
 II,JST,KST,LST =  4  1  1  1 NREC =         1 INTLOC =  214
 II,JST,KST,LST =  5  1  1  1 NREC =         1 INTLOC =  776
 II,JST,KST,LST =  6  1  1  1 NREC =         1 INTLOC = 2074
 II,JST,KST,LST =  7  1  1  1 NREC =         1 INTLOC = 5929
 II,JST,KST,LST =  8  1  1  1 NREC =         1 INTLOC =14065
 II,JST,KST,LST =  9  1  1  1 NREC =         2 INTLOC = 5035
 II,JST,KST,LST = 10  1  1  1 NREC =         6 INTLOC =10887
 II,JST,KST,LST = 11  1  1  1 NREC =        13 INTLOC =   81
 II,JST,KST,LST = 12  1  1  1 NREC =        13 INTLOC =12753
 II,JST,KST,LST = 13  1  1  1 NREC =        21 INTLOC = 7197
 II,JST,KST,LST = 14  1  1  1 NREC =        33 INTLOC = 3300
 II,JST,KST,LST = 15  1  1  1 NREC =        34 INTLOC =13620
 II,JST,KST,LST = 16  1  1  1 NREC =        47 INTLOC =13031
 II,JST,KST,LST = 17  1  1  1 NREC =        67 INTLOC = 7490
 II,JST,KST,LST = 18  1  1  1 NREC =        69 INTLOC = 5064
 II,JST,KST,LST = 19  1  1  1 NREC =        78 INTLOC = 6481
 II,JST,KST,LST = 20  1  1  1 NREC =        92 INTLOC = 8665
 II,JST,KST,LST = 21  1  1  1 NREC =       121 INTLOC =11637
 II,JST,KST,LST = 22  1  1  1 NREC =       161 INTLOC = 2729
 II,JST,KST,LST = 23  1  1  1 NREC =       199 INTLOC = 8988
 II,JST,KST,LST = 24  1  1  1 NREC =       252 INTLOC = 1629
 II,JST,KST,LST = 25  1  1  1 NREC =       258 INTLOC = 4881
 II,JST,KST,LST = 26  1  1  1 NREC =       300 INTLOC =12869
 II,JST,KST,LST = 27  1  1  1 NREC =       376 INTLOC =  375
 II,JST,KST,LST = 28  1  1  1 NREC =       380 INTLOC =  658
 II,JST,KST,LST = 29  1  1  1 NREC =       399 INTLOC =11511
 II,JST,KST,LST = 30  1  1  1 NREC =       432 INTLOC = 1704
 II,JST,KST,LST = 31  1  1  1 NREC =       498 INTLOC = 9760
 II,JST,KST,LST = 32  1  1  1 NREC =       602 INTLOC = 8342
 II,JST,KST,LST = 33  1  1  1 NREC =       675 INTLOC = 2817
 II,JST,KST,LST = 34  1  1  1 NREC =       775 INTLOC = 7393
 II,JST,KST,LST = 35  1  1  1 NREC =       789 INTLOC = 3786
 II,JST,KST,LST = 36  1  1  1 NREC =       880 INTLOC = 7701
 II,JST,KST,LST = 37  1  1  1 NREC =      1043 INTLOC =13266
 II,JST,KST,LST = 38  1  1  1 NREC =      1050 INTLOC =13573
 II,JST,KST,LST = 39  1  1  1 NREC =      1085 INTLOC = 6964
 II,JST,KST,LST = 40  1  1  1 NREC =      1143 INTLOC = 7790
 II,JST,KST,LST = 41  1  1  1 NREC =      1260 INTLOC =13286
 II,JST,KST,LST = 42  1  1  1 NREC =      1456 INTLOC = 5209
 II,JST,KST,LST = 43  1  1  1 NREC =      1575 INTLOC = 3697
 II,JST,KST,LST = 44  1  1  1 NREC =      1739 INTLOC =12596
 II,JST,KST,LST = 45  1  1  1 NREC =      1766 INTLOC = 1072
 II,JST,KST,LST = 46  1  1  1 NREC =      1928 INTLOC =  228
 II,JST,KST,LST = 47  1  1  1 NREC =      2225 INTLOC = 9564
 II,JST,KST,LST = 48  1  1  1 NREC =      2236 INTLOC =11931
 II,JST,KST,LST = 49  1  1  1 NREC =      2290 INTLOC = 8643
 II,JST,KST,LST = 50  1  1  1 NREC =      2383 INTLOC =10005
 II,JST,KST,LST = 51  1  1  1 NREC =      2573 INTLOC =11991
 II,JST,KST,LST = 52  1  1  1 NREC =      2895 INTLOC = 6981
 II,JST,KST,LST = 53  1  1  1 NREC =      3070 INTLOC = 3385
 II,JST,KST,LST = 54  1  1  1 NREC =      3317 INTLOC = 2070
 II,JST,KST,LST = 55  1  1  1 NREC =      3347 INTLOC =14490
 II,JST,KST,LST = 56  1  1  1 NREC =      3551 INTLOC = 1433
 II,JST,KST,LST = 57  1  1  1 NREC =      3941 INTLOC =13466
 II,JST,KST,LST = 58  1  1  1 NREC =      3967 INTLOC =13154
 II,JST,KST,LST = 59  1  1  1 NREC =      4155 INTLOC =14219
 II,JST,KST,LST = 60  1  1  1 NREC =      4533 INTLOC =  453
 II,JST,KST,LST = 61  1  1  1 NREC =      4592 INTLOC = 1207
 II,JST,KST,LST = 62  1  1  1 NREC =      4704 INTLOC = 8797
 II,JST,KST,LST = 63  1  1  1 NREC =      4773 INTLOC = 1715
 II,JST,KST,LST = 64  1  1  1 NREC =      4889 INTLOC = 1743
 II,JST,KST,LST = 65  1  1  1 NREC =      4942 INTLOC = 4790
 II,JST,KST,LST = 66  1  1  1 NREC =      5038 INTLOC = 6938
 II,JST,KST,LST = 67  1  1  1 NREC =      5081 INTLOC = 3817
 II,JST,KST,LST = 68  1  1  1 NREC =      5170 INTLOC =13384
 II,JST,KST,LST = 69  1  1  1 NREC =      5233 INTLOC =13235
 SCHWARZ INEQUALITY TEST SKIPPED     1965610 INTEGRAL BLOCKS.
 TOTAL NUMBER OF NONZERO TWO-ELECTRON INTEGRALS =            80264499
       5351 INTEGRAL RECORDS WERE STORED ON DISK FILE  8.
  ...... END OF TWO-ELECTRON INTEGRALS .....
 STEP CPU TIME =    10.41 TOTAL CPU TIME =       10.7 (    0.2 MIN)
 TOTAL WALL CLOCK TIME=       11.5 SECONDS, CPU UTILIZATION IS  92.98%

          --------------------------
                 RHF SCF CALCULATION
          --------------------------

     NUCLEAR ENERGY =      3134.8846532111
     MAXIT =   30     NPUNCH=    2
     EXTRAP=T  DAMP=F  SHIFT=F  RSTRCT=F  DIIS=F  DEM=F  SOSCF=T
     DENSITY MATRIX CONV=  1.00E-05
     SOSCF WILL OPTIMIZE   12882 ORBITAL ROTATIONS, SOGTOL=   0.250
     MEMORY REQUIRED FOR RHF ITERS=    445409 WORDS.

 ITER EX DEM     TOTAL ENERGY        E CHANGE  DENSITY CHANGE     ORB. GRAD
   1  0  0   -13163.2165514540-13163.2165514540   0.645807727   0.000000000
          ---------------START SECOND ORDER SCF---------------
   2  1  0   -13165.8725409235    -2.6559894695   0.169746165   0.043663215
   3  2  0   -13165.9223043447    -0.0497634211   0.068783582   0.022064153
   4  3  0   -13165.9357451971    -0.0134408525   0.009239240   0.004464317
   5  4  0   -13165.9361975185    -0.0004523214   0.002548708   0.002525231
   6  5  0   -13165.9363073717    -0.0001098532   0.001518790   0.000529977
   7  6  0   -13165.9363175985    -0.0000102267   0.001076000   0.000313549
   8  7  0   -13165.9363211784    -0.0000035800   0.000396789   0.000113649
   9  8  0   -13165.9363218769    -0.0000006985   0.000174438   0.000034940
  10  9  0   -13165.9363219990    -0.0000001220   0.000044854   0.000010803
  11 10  0   -13165.9363220053    -0.0000000063   0.000018706   0.000003629
  12 11  0   -13165.9363220059    -0.0000000006   0.000003055   0.000000972
  13 12  0   -13165.9363220059    -0.0000000000   0.000000940   0.000000322

          -----------------
          DENSITY CONVERGED
          -----------------
     TIME TO FORM FOCK OPERATORS=      18.3 SECONDS (       1.4 SEC/ITER)
     TIME TO SOLVE SCF EQUATIONS=       0.2 SECONDS (       0.0 SEC/ITER)

 FINAL RHF ENERGY IS   -13165.9363220059 AFTER  13 ITERATIONS

          ------------
          EIGENVECTORS
          ------------

                      1          2          3          4          5
                 -490.0207  -490.0193  -490.0192  -490.0189  -490.0185
                     A          A          A          A          A   
    1  BR 1  S    0.000034  -0.000696  -0.001107   0.995132  -0.000136
    2  BR 1  S    0.000000   0.000006   0.000014  -0.018821   0.000004
    3  BR 1  X   -0.000000   0.000000  -0.000000   0.000000   0.000000
    4  BR 1  Y    0.000000  -0.000001  -0.000001  -0.000006   0.000000
    5  BR 1  Z    0.000000  -0.000000  -0.000000  -0.000001  -0.000000
    6  BR 1  S    0.000007  -0.000035  -0.000026  -0.020525   0.000010
    7  BR 1  X    0.000001  -0.000002   0.000001   0.000000  -0.000001
    8  BR 1  Y   -0.000001   0.000002   0.000002  -0.000003  -0.000001
    9  BR 1  Z   -0.000000   0.000000   0.000000  -0.000000  -0.000000
   10  BR 1  S    0.000007  -0.000037  -0.000036   0.000131   0.000007
   11  BR 1  X   -0.000003   0.000009  -0.000007  -0.000001   0.000003
   12  BR 1  Y    0.000005  -0.000014  -0.000014   0.000028   0.000005
   13  BR 1  Z    0.000001  -0.000003  -0.000000   0.000003   0.000000
   14  BR 1  S   -0.000010  -0.000013  -0.000013   0.000110  -0.000010
   15  BR 1  X    0.000001  -0.000015   0.000014   0.000001  -0.000001
   16  BR 1  Y    0.000004   0.000005   0.000007  -0.000027   0.000004
   17  BR 1  Z    0.000000   0.000003  -0.000001  -0.000003   0.000001
   18  BR 1 XX    0.000002  -0.000011  -0.000006  -0.010484   0.000004
   19  BR 1 YY    0.000002  -0.000011  -0.000007  -0.010482   0.000004
   20  BR 1 ZZ    0.000002  -0.000011  -0.000006  -0.010483   0.000004
   21  BR 1 XY   -0.000000   0.000000  -0.000000  -0.000000   0.000000
   22  BR 1 XZ   -0.000000  -0.000000  -0.000000   0.000000   0.000000
   23  BR 1 YZ    0.000000  -0.000000  -0.000000   0.000000   0.000000
   24  BR 1 XX    0.000002  -0.000009  -0.000009  -0.001588   0.000002
   25  BR 1 YY    0.000001  -0.000008  -0.000007  -0.001591   0.000001
   26  BR 1 ZZ    0.000002  -0.000009  -0.000008  -0.001589   0.000002
   27  BR 1 XY    0.000000  -0.000001   0.000000   0.000000  -0.000001
   28  BR 1 XZ    0.000000   0.000000   0.000000  -0.000000  -0.000000
   29  BR 1 YZ   -0.000000   0.000000   0.000000  -0.000000  -0.000000
   30  C  2  S    0.000002  -0.000002  -0.000002   0.000002   0.000002
   31  C  2  S    0.000012  -0.000014  -0.000014   0.000019   0.000012
   32  C  2  X    0.000001   0.000008  -0.000008   0.000001  -0.000001
   33  C  2  Y    0.000000   0.000005   0.000004  -0.000011   0.000000
   34  C  2  Z   -0.000000  -0.000001   0.000001  -0.000001   0.000001
   35  C  2  S   -0.000212   0.000235   0.000233  -0.000211  -0.000210
   36  C  2  X    0.000030  -0.000042   0.000053  -0.000009  -0.000045
   37  C  2  Y    0.000104  -0.000140  -0.000131   0.000163   0.000098
   38  C  2  Z    0.000005  -0.000006  -0.000020   0.000016   0.000015
   39  C  3  S   -0.000001   0.000002   0.000002  -0.000002  -0.000002
   40  C  3  S   -0.000009   0.000020   0.000011  -0.000014  -0.000013
   41  C  3  X    0.000002  -0.000009   0.000002  -0.000001   0.000008
   42  C  3  Y    0.000001  -0.000006  -0.000001   0.000009  -0.000005
   43  C  3  Z   -0.000000   0.000001  -0.000000   0.000001  -0.000002
   44  C  3  S    0.000149  -0.000214  -0.000202   0.000240   0.000240
   45  C  3  X   -0.000077   0.000136   0.000096  -0.000089  -0.000145
   46  C  3  Y   -0.000059   0.000093   0.000023  -0.000115  -0.000031
   47  C  3  Z    0.000009  -0.000017  -0.000016   0.000006   0.000026
   48  C  4  S   -0.000002   0.000002   0.000002  -0.000002  -0.000001
   49  C  4  S   -0.000013   0.000011   0.000019  -0.000014  -0.000008
   50  C  4  X   -0.000007  -0.000002   0.000010   0.000000  -0.000002
   51  C  4  Y   -0.000006  -0.000001  -0.000005   0.000009   0.000000
   52  C  4  Z    0.000000   0.000000  -0.000002   0.000001   0.000000
   53  C  4  S    0.000242  -0.000207  -0.000207   0.000238   0.000142
   54  C  4  X    0.000144  -0.000100  -0.000144   0.000098   0.000077
   55  C  4  Y   -0.000018   0.000012   0.000070  -0.000105  -0.000049
   56  C  4  Z   -0.000021   0.000015   0.000026  -0.000022  -0.000013
   57  BR 5  S   -0.000083   0.995133  -0.000304   0.000694   0.000344
   58  BR 5  S   -0.000001  -0.018821   0.000007  -0.000020  -0.000013
   59  BR 5  X   -0.000000  -0.000005   0.000000  -0.000001  -0.000000
   60  BR 5  Y   -0.000000  -0.000003   0.000000   0.000000  -0.000001
   61  BR 5  Z    0.000000   0.000001   0.000000   0.000000  -0.000000
   62  BR 5  S   -0.000014  -0.020525   0.000012  -0.000063  -0.000055
   63  BR 5  X    0.000001  -0.000002  -0.000000   0.000003   0.000001
   64  BR 5  Y    0.000001  -0.000001  -0.000001  -0.000000   0.000002
   65  BR 5  Z   -0.000000   0.000000  -0.000000  -0.000000   0.000000
   66  BR 5  S   -0.000014   0.000132   0.000006  -0.000037  -0.000036
   67  BR 5  X   -0.000007   0.000024   0.000002  -0.000016  -0.000007
   68  BR 5  Y   -0.000004   0.000016   0.000005  -0.000001  -0.000015
   69  BR 5  Z    0.000001  -0.000002   0.000000   0.000003  -0.000000
   70  BR 5  S    0.000006   0.000111  -0.000009  -0.000013  -0.000012
   71  BR 5  X   -0.000002  -0.000023   0.000003   0.000013  -0.000003
   72  BR 5  Y   -0.000002  -0.000016   0.000001  -0.000009   0.000015
   73  BR 5  Z    0.000000   0.000002  -0.000000  -0.000003   0.000001
   74  BR 5 XX   -0.000005  -0.010482   0.000005  -0.000026  -0.000021
   75  BR 5 YY   -0.000005  -0.010483   0.000005  -0.000025  -0.000022
   76  BR 5 ZZ   -0.000005  -0.010483   0.000005  -0.000025  -0.000021
   77  BR 5 XY   -0.000000   0.000001   0.000000  -0.000000  -0.000000
   78  BR 5 XZ    0.000000  -0.000000   0.000000   0.000000  -0.000000
   79  BR 5 YZ    0.000000  -0.000000   0.000000   0.000000   0.000000
   80  BR 5 XX   -0.000003  -0.001590   0.000002  -0.000010  -0.000010
   81  BR 5 YY   -0.000003  -0.001589   0.000001  -0.000012  -0.000010
   82  BR 5 ZZ   -0.000003  -0.001589   0.000002  -0.000011  -0.000010
   83  BR 5 XY    0.000000  -0.000001  -0.000000   0.000001   0.000001
   84  BR 5 XZ   -0.000000  -0.000000  -0.000000  -0.000000   0.000000
   85  BR 5 YZ   -0.000000   0.000000  -0.000000  -0.000000  -0.000000
   86  C  6  S    0.000002  -0.000002  -0.000001   0.000002   0.000003
   87  C  6  S    0.000013  -0.000015  -0.000008   0.000012   0.000022
   88  C  6  X    0.000001   0.000007   0.000002   0.000000  -0.000010
   89  C  6  Y    0.000002   0.000005  -0.000001  -0.000001   0.000005
   90  C  6  Z    0.000000  -0.000001  -0.000001  -0.000000   0.000003
   91  C  6  S   -0.000238   0.000253   0.000118  -0.000217  -0.000252
   92  C  6  X    0.000116  -0.000146  -0.000075   0.000076   0.000165
   93  C  6  Y   -0.000028   0.000018   0.000042  -0.000076  -0.000061
   94  C  6  Z   -0.000027   0.000031   0.000019  -0.000022  -0.000042
   95  BR 7  S   -0.000189   0.000303   0.995132   0.001106   0.000150
   96  BR 7  S   -0.000003  -0.000005  -0.018821  -0.000028  -0.000005
   97  BR 7  X    0.000000  -0.000000   0.000005   0.000001   0.000000
   98  BR 7  Y   -0.000001   0.000000  -0.000003   0.000000  -0.000000
   99  BR 7  Z   -0.000000   0.000000  -0.000001  -0.000000  -0.000000
  100  BR 7  S   -0.000043  -0.000001  -0.020525  -0.000071  -0.000017
  101  BR 7  X   -0.000001   0.000000   0.000002  -0.000003  -0.000001
  102  BR 7  Y    0.000002  -0.000001  -0.000001  -0.000000   0.000000
  103  BR 7  Z    0.000000  -0.000000  -0.000000   0.000000   0.000000
  104  BR 7  S   -0.000036   0.000006   0.000132  -0.000036  -0.000012
  105  BR 7  X    0.000008  -0.000003  -0.000025   0.000016   0.000007
  106  BR 7  Y   -0.000013   0.000004   0.000013   0.000001  -0.000003
  107  BR 7  Z   -0.000002   0.000001   0.000004  -0.000002  -0.000001
  108  BR 7  S   -0.000013  -0.000009   0.000112  -0.000013   0.000007
  109  BR 7  X    0.000001  -0.000004   0.000024  -0.000012   0.000002
  110  BR 7  Y    0.000015   0.000001  -0.000013  -0.000011  -0.000002
  111  BR 7  Z    0.000001   0.000001  -0.000004   0.000001  -0.000001
  112  BR 7 XX   -0.000015  -0.000001  -0.010482  -0.000030  -0.000007
  113  BR 7 YY   -0.000015  -0.000001  -0.010483  -0.000029  -0.000007
  114  BR 7 ZZ   -0.000015  -0.000001  -0.010483  -0.000030  -0.000007
  115  BR 7 XY    0.000000  -0.000000  -0.000001   0.000000   0.000000
  116  BR 7 XZ    0.000000  -0.000000  -0.000000   0.000000   0.000000
  117  BR 7 YZ   -0.000000   0.000000   0.000000   0.000000  -0.000000
  118  BR 7 XX   -0.000009   0.000001  -0.001590  -0.000011  -0.000003
  119  BR 7 YY   -0.000009   0.000000  -0.001589  -0.000012  -0.000003
  120  BR 7 ZZ   -0.000009   0.000001  -0.001589  -0.000012  -0.000003
  121  BR 7 XY   -0.000001   0.000000   0.000001  -0.000000  -0.000000
  122  BR 7 XZ   -0.000000   0.000000   0.000000  -0.000000  -0.000000
  123  BR 7 YZ    0.000000  -0.000000  -0.000000  -0.000000   0.000000
  124  C  8  S    0.000002  -0.000001  -0.000002   0.000002   0.000002
  125  C  8  S    0.000021  -0.000008  -0.000015   0.000012   0.000012
  126  C  8  X    0.000010  -0.000002  -0.000008   0.000000  -0.000001
  127  C  8  Y    0.000006  -0.000001   0.000004  -0.000002   0.000001
  128  C  8  Z   -0.000001   0.000000   0.000001  -0.000000   0.000001
  129  C  8  S   -0.000231   0.000127   0.000247  -0.000210  -0.000213
  130  C  8  X   -0.000148   0.000075   0.000145  -0.000064  -0.000104
  131  C  8  Y   -0.000094   0.000053   0.000028  -0.000087  -0.000047
  132  C  8  Z    0.000015  -0.000007  -0.000018   0.000003   0.000007
  133  BR 9  S    0.000043  -0.000346  -0.000151   0.000135   0.995133
  134  BR 9  S    0.000001  -0.000000   0.000001  -0.000002  -0.018820
  135  BR 9  X    0.000000  -0.000000  -0.000000   0.000000  -0.000005
  136  BR 9  Y   -0.000000   0.000001   0.000000   0.000000   0.000002
  137  BR 9  Z   -0.000000   0.000000   0.000000  -0.000000   0.000001
  138  BR 9  S    0.000013  -0.000041  -0.000011   0.000005  -0.020516
  139  BR 9  X   -0.000001   0.000001   0.000001  -0.000001  -0.000003
  140  BR 9  Y    0.000001  -0.000002  -0.000001  -0.000000   0.000001
  141  BR 9  Z    0.000000  -0.000001  -0.000000   0.000000   0.000001
  142  BR 9  S    0.000012  -0.000037  -0.000013   0.000007   0.000138
  143  BR 9  X    0.000005  -0.000009  -0.000006   0.000006   0.000026
  144  BR 9  Y   -0.000004   0.000014   0.000004   0.000000  -0.000011
  145  BR 9  Z   -0.000002   0.000004   0.000002  -0.000002  -0.000010
  146  BR 9  S   -0.000009  -0.000013   0.000007  -0.000010   0.000115
  147  BR 9  X    0.000003  -0.000001  -0.000004   0.000003  -0.000025
  148  BR 9  Y   -0.000003  -0.000018  -0.000000  -0.000003   0.000007
  149  BR 9  Z   -0.000001  -0.000000   0.000001  -0.000001   0.000012
  150  BR 9 XX    0.000005  -0.000014  -0.000004   0.000001  -0.010479
  151  BR 9 YY    0.000005  -0.000014  -0.000004   0.000001  -0.010480
  152  BR 9 ZZ    0.000005  -0.000014  -0.000004   0.000001  -0.010480
  153  BR 9 XY   -0.000000   0.000000   0.000000   0.000000  -0.000001
  154  BR 9 XZ   -0.000000   0.000000   0.000000  -0.000000  -0.000000
  155  BR 9 YZ    0.000000  -0.000000  -0.000000  -0.000000   0.000000
  156  BR 9 XX    0.000003  -0.000009  -0.000002   0.000001  -0.001588
  157  BR 9 YY    0.000003  -0.000009  -0.000003   0.000002  -0.001587
  158  BR 9 ZZ    0.000003  -0.000009  -0.000003   0.000001  -0.001588
  159  BR 9 XY    0.000000  -0.000001  -0.000000  -0.000000   0.000001
  160  BR 9 XZ    0.000000  -0.000000  -0.000000   0.000000   0.000000
  161  BR 9 YZ   -0.000000   0.000000   0.000000   0.000000  -0.000000
  162  C 10  S   -0.000002   0.000002   0.000002  -0.000001  -0.000002
  163  C 10  S   -0.000009   0.000012   0.000013  -0.000008  -0.000010
  164  C 10  X   -0.000008  -0.000000   0.000000  -0.000000   0.000006
  165  C 10  Y   -0.000009   0.000000  -0.000000  -0.000003  -0.000007
  166  C 10  Z    0.000001   0.000000   0.000000  -0.000000  -0.000003
  167  C 10  S    0.000210  -0.000202  -0.000206   0.000118   0.000206
  168  C 10  X    0.000039  -0.000038   0.000056  -0.000000  -0.000025
  169  C 10  Y    0.000207  -0.000121  -0.000104   0.000115   0.000206
  170  C 10  Z    0.000001   0.000002  -0.000015   0.000005   0.000020
  171  BR11  S    0.995133   0.000083   0.000188  -0.000033  -0.000043
  172  BR11  S   -0.018821  -0.000004  -0.000010   0.000002   0.000003
  173  BR11  X    0.000005   0.000000   0.000000  -0.000000  -0.000000
  174  BR11  Y    0.000003   0.000000   0.000001   0.000000  -0.000000
  175  BR11  Z   -0.000000  -0.000000   0.000000   0.000000   0.000000
  176  BR11  S   -0.020522  -0.000018  -0.000052   0.000009   0.000015
  177  BR11  X    0.000002  -0.000001  -0.000001   0.000001   0.000001
  178  BR11  Y    0.000001  -0.000001  -0.000002  -0.000000   0.000001
  179  BR11  Z   -0.000000   0.000000  -0.000000  -0.000000  -0.000000
  180  BR11  S    0.000134  -0.000014  -0.000036   0.000007   0.000012
  181  BR11  X   -0.000025   0.000007   0.000007  -0.000006  -0.000006
  182  BR11  Y   -0.000015   0.000004   0.000015   0.000000  -0.000004
  183  BR11  Z    0.000001  -0.000000   0.000000   0.000000   0.000000
  184  BR11  S    0.000113   0.000007  -0.000013  -0.000009  -0.000009
  185  BR11  X    0.000025   0.000003   0.000004  -0.000002  -0.000003
  186  BR11  Y    0.000012   0.000001  -0.000018  -0.000004  -0.000005
  187  BR11  Z   -0.000001  -0.000000  -0.000001  -0.000000   0.000001
  188  BR11 XX   -0.010481  -0.000007  -0.000020   0.000003   0.000006
  189  BR11 YY   -0.010482  -0.000007  -0.000020   0.000003   0.000006
  190  BR11 ZZ   -0.010482  -0.000007  -0.000020   0.000003   0.000006
  191  BR11 XY    0.000001  -0.000000  -0.000000  -0.000000   0.000000
  192  BR11 XZ   -0.000000  -0.000000  -0.000000  -0.000000  -0.000000
  193  BR11 YZ   -0.000000   0.000000   0.000000   0.000000  -0.000000
  194  BR11 XX   -0.001590  -0.000003  -0.000010   0.000001   0.000003
  195  BR11 YY   -0.001588  -0.000004  -0.000010   0.000002   0.000003
  196  BR11 ZZ   -0.001589  -0.000004  -0.000010   0.000002   0.000003
  197  BR11 XY   -0.000002   0.000001   0.000001   0.000000  -0.000001
  198  BR11 XZ   -0.000000  -0.000000   0.000000   0.000000   0.000000
  199  BR11 YZ    0.000000  -0.000000  -0.000000  -0.000000   0.000000
  200  C 12  S   -0.000001  -0.000000  -0.000000  -0.000000  -0.000001
  201  C 12  S   -0.000006  -0.000001  -0.000003   0.000001  -0.000003
  202  C 12  X   -0.000003   0.000001   0.000000   0.000000   0.000004
  203  C 12  Y    0.000007  -0.000001  -0.000001   0.000003   0.000006
  204  C 12  Z   -0.000001  -0.000000  -0.000001  -0.000000  -0.000001
  205  C 12  S    0.000119  -0.000029  -0.000012   0.000043   0.000101
  206  C 12  X   -0.000006   0.000006  -0.000014  -0.000003  -0.000012
  207  C 12  Y    0.000017  -0.000013  -0.000008   0.000013   0.000036
  208  C 12  Z    0.000014  -0.000003   0.000005   0.000005   0.000009
  209  C 13  S    0.000000  -0.000000   0.000000   0.000000   0.000000
  210  C 13  S    0.000002  -0.000001   0.000001   0.000001   0.000001
  211  C 13  X    0.000002  -0.000000   0.000000   0.000001   0.000002
  212  C 13  Y   -0.000001   0.000000   0.000000   0.000000   0.000005
  213  C 13  Z    0.000000  -0.000000  -0.000000   0.000000  -0.000001
  214  C 13  S   -0.000023   0.000005   0.000000  -0.000005   0.000008
  215  C 13  X    0.000004   0.000002  -0.000000  -0.000000  -0.000001
  216  C 13  Y   -0.000002  -0.000001  -0.000003  -0.000001  -0.000025
  217  C 13  Z    0.000005   0.000001  -0.000003   0.000000  -0.000001
  218  H 14  S   -0.000002  -0.000000   0.000000  -0.000000   0.000001
  219  H 14  S   -0.000001  -0.000001   0.000002   0.000002  -0.000004
  220  H 15  S    0.000001   0.000001   0.000000  -0.000001  -0.000003
  221  H 15  S   -0.000042   0.000000  -0.000015  -0.000007  -0.000013
  222  H 16  S    0.000001   0.000001   0.000000   0.000000   0.000004
  223  H 16  S    0.000002  -0.000008  -0.000001   0.000001  -0.000019
  224  H 17  S    0.000000  -0.000000  -0.000000   0.000000  -0.000002
  225  H 17  S    0.000005  -0.000000  -0.000001   0.000001  -0.000011
  226  H 18  S    0.000001  -0.000001   0.000000   0.000000   0.000005
  227  H 18  S    0.000001  -0.000001   0.000002   0.000001  -0.000001

                      6          7          8          9         10
                  -65.1810   -65.1797   -65.1795   -65.1792   -65.1789
                     A          A          A          A          A   
    1  BR 1  S    0.000001  -0.000066  -0.000100   0.313166  -0.000004
    2  BR 1  S    0.000001  -0.000214  -0.000329   1.034773  -0.000012
    3  BR 1  X    0.000000  -0.000000   0.000000  -0.000059  -0.000000
    4  BR 1  Y   -0.000000   0.000000   0.000000   0.001238  -0.000000
    5  BR 1  Z   -0.000000   0.000000  -0.000000   0.000127  -0.000000
    6  BR 1  S   -0.000005   0.000025   0.000023   0.010437  -0.000005
    7  BR 1  X   -0.000001   0.000001  -0.000001  -0.000005   0.000001
    8  BR 1  Y    0.000001  -0.000002  -0.000002   0.000094   0.000001
    9  BR 1  Z    0.000000  -0.000000  -0.000000   0.000010   0.000000
   10  BR 1  S   -0.000007   0.000030   0.000030  -0.000073  -0.000007
   11  BR 1  X    0.000002  -0.000007   0.000006   0.000002  -0.000002
   12  BR 1  Y   -0.000005   0.000014   0.000014  -0.000053  -0.000005
   13  BR 1  Z   -0.000001   0.000003   0.000001  -0.000006  -0.000000
   14  BR 1  S    0.000010   0.000002   0.000002  -0.000038   0.000010
   15  BR 1  X   -0.000000   0.000009  -0.000009  -0.000001   0.000001
   16  BR 1  Y   -0.000004  -0.000001  -0.000002   0.000021  -0.000004
   17  BR 1  Z   -0.000000  -0.000002   0.000001   0.000002  -0.000001
   18  BR 1 XX   -0.000002   0.000010   0.000010  -0.004142  -0.000002
   19  BR 1 YY   -0.000002   0.000011   0.000011  -0.004231  -0.000002
   20  BR 1 ZZ   -0.000002   0.000010   0.000011  -0.004146  -0.000002
   21  BR 1 XY    0.000000  -0.000000   0.000000   0.000005  -0.000000
   22  BR 1 XZ    0.000000   0.000000   0.000000   0.000000  -0.000000
   23  BR 1 YZ   -0.000000   0.000000   0.000000  -0.000010  -0.000000
   24  BR 1 XX   -0.000001   0.000007   0.000007   0.000874  -0.000001
   25  BR 1 YY   -0.000001   0.000006   0.000005   0.000889  -0.000001
   26  BR 1 ZZ   -0.000001   0.000007   0.000007   0.000875  -0.000001
   27  BR 1 XY   -0.000000   0.000001  -0.000000  -0.000001   0.000000
   28  BR 1 XZ   -0.000000   0.000000  -0.000000  -0.000000   0.000000
   29  BR 1 YZ    0.000000  -0.000000  -0.000000   0.000002   0.000000
   30  C  2  S   -0.000002   0.000002   0.000002  -0.000003  -0.000002
   31  C  2  S   -0.000012   0.000013   0.000013  -0.000011  -0.000012
   32  C  2  X   -0.000001  -0.000008   0.000008  -0.000001   0.000001
   33  C  2  Y   -0.000000  -0.000005  -0.000004   0.000018  -0.000000
   34  C  2  Z    0.000000   0.000001  -0.000001   0.000002  -0.000001
   35  C  2  S    0.000206  -0.000227  -0.000225   0.000188   0.000205
   36  C  2  X   -0.000028   0.000040  -0.000051   0.000010   0.000042
   37  C  2  Y   -0.000101   0.000141   0.000133  -0.000176  -0.000096
   38  C  2  Z   -0.000005   0.000006   0.000020  -0.000017  -0.000014
   39  C  3  S    0.000001  -0.000003  -0.000002   0.000002   0.000002
   40  C  3  S    0.000009  -0.000011  -0.000011   0.000013   0.000012
   41  C  3  X   -0.000002   0.000014  -0.000002   0.000001  -0.000008
   42  C  3  Y   -0.000001   0.000010   0.000001  -0.000009   0.000005
   43  C  3  Z    0.000000  -0.000002   0.000000  -0.000001   0.000002
   44  C  3  S   -0.000145   0.000189   0.000197  -0.000233  -0.000234
   45  C  3  X    0.000076  -0.000146  -0.000093   0.000092   0.000144
   46  C  3  Y    0.000056  -0.000099  -0.000023   0.000115   0.000036
   47  C  3  Z   -0.000009   0.000018   0.000016  -0.000006  -0.000025
   48  C  4  S    0.000002  -0.000002  -0.000003   0.000002   0.000001
   49  C  4  S    0.000012  -0.000011  -0.000011   0.000013   0.000008
   50  C  4  X    0.000007   0.000002  -0.000016   0.000000   0.000002
   51  C  4  Y    0.000006   0.000001   0.000008  -0.000009  -0.000000
   52  C  4  Z   -0.000001  -0.000000   0.000003  -0.000001  -0.000000
   53  C  4  S   -0.000233   0.000202   0.000184  -0.000231  -0.000140
   54  C  4  X   -0.000143   0.000097   0.000155  -0.000100  -0.000077
   55  C  4  Y    0.000020  -0.000012  -0.000076   0.000104   0.000047
   56  C  4  Z    0.000021  -0.000014  -0.000028   0.000023   0.000013
   57  BR 5  S   -0.000003   0.313165  -0.000003   0.000066   0.000038
   58  BR 5  S   -0.000010   1.034773  -0.000011   0.000221   0.000130
   59  BR 5  X    0.000000   0.001029  -0.000000   0.000001   0.000000
   60  BR 5  Y    0.000000   0.000695  -0.000000   0.000000   0.000001
   61  BR 5  Z   -0.000000  -0.000116  -0.000000  -0.000000  -0.000000
   62  BR 5  S    0.000010   0.010436  -0.000004   0.000029   0.000028
   63  BR 5  X   -0.000001   0.000079   0.000000  -0.000003  -0.000001
   64  BR 5  Y   -0.000001   0.000053   0.000001  -0.000000  -0.000002
   65  BR 5  Z    0.000000  -0.000009   0.000000   0.000000  -0.000000
   66  BR 5  S    0.000013  -0.000074  -0.000006   0.000030   0.000030
   67  BR 5  X    0.000006  -0.000044  -0.000002   0.000015   0.000008
   68  BR 5  Y    0.000004  -0.000030  -0.000004   0.000002   0.000013
   69  BR 5  Z   -0.000001   0.000005  -0.000000  -0.000002  -0.000000
   70  BR 5  S   -0.000007  -0.000039   0.000009   0.000002   0.000002
   71  BR 5  X    0.000002   0.000018  -0.000003  -0.000006   0.000003
   72  BR 5  Y    0.000002   0.000012  -0.000002   0.000007  -0.000008
   73  BR 5  Z   -0.000000  -0.000002   0.000000   0.000002  -0.000001
   74  BR 5 XX    0.000003  -0.004204  -0.000001   0.000009   0.000009
   75  BR 5 YY    0.000003  -0.004170  -0.000001   0.000008   0.000009
   76  BR 5 ZZ    0.000003  -0.004146  -0.000001   0.000008   0.000009
   77  BR 5 XY    0.000000  -0.000048  -0.000000   0.000000   0.000000
   78  BR 5 XZ   -0.000000   0.000007  -0.000000  -0.000000   0.000000
   79  BR 5 YZ   -0.000000   0.000006  -0.000000  -0.000000  -0.000000
   80  BR 5 XX    0.000002   0.000884  -0.000001   0.000006   0.000007
   81  BR 5 YY    0.000002   0.000879  -0.000001   0.000007   0.000006
   82  BR 5 ZZ    0.000003   0.000875  -0.000001   0.000007   0.000007
   83  BR 5 XY   -0.000000   0.000008   0.000000  -0.000001  -0.000001
   84  BR 5 XZ    0.000000  -0.000001   0.000000   0.000000  -0.000000
   85  BR 5 YZ    0.000000  -0.000001   0.000000   0.000000   0.000000
   86  C  6  S   -0.000002   0.000002   0.000001  -0.000002  -0.000003
   87  C  6  S   -0.000013   0.000014   0.000007  -0.000012  -0.000013
   88  C  6  X   -0.000001  -0.000007  -0.000002  -0.000000   0.000015
   89  C  6  Y   -0.000002  -0.000005   0.000001   0.000001  -0.000008
   90  C  6  Z   -0.000000   0.000001   0.000001   0.000000  -0.000004
   91  C  6  S    0.000232  -0.000245  -0.000117   0.000213   0.000223
   92  C  6  X   -0.000114   0.000147   0.000074  -0.000074  -0.000173
   93  C  6  Y    0.000026  -0.000019  -0.000041   0.000074   0.000072
   94  C  6  Z    0.000027  -0.000032  -0.000019   0.000022   0.000044
   95  BR 7  S   -0.000019   0.000003   0.313165   0.000101   0.000007
   96  BR 7  S   -0.000059   0.000009   1.034773   0.000336   0.000025
   97  BR 7  X   -0.000000   0.000000  -0.001096  -0.000001  -0.000000
   98  BR 7  Y    0.000001  -0.000000   0.000562   0.000000   0.000000
   99  BR 7  Z    0.000000  -0.000000   0.000189   0.000000   0.000000
  100  BR 7  S    0.000025  -0.000004   0.010436   0.000030   0.000009
  101  BR 7  X    0.000001  -0.000000  -0.000084   0.000003   0.000001
  102  BR 7  Y   -0.000002   0.000001   0.000043   0.000000  -0.000000
  103  BR 7  Z   -0.000000   0.000000   0.000014  -0.000000  -0.000000
  104  BR 7  S    0.000029  -0.000006  -0.000074   0.000030   0.000012
  105  BR 7  X   -0.000009   0.000003   0.000047  -0.000015  -0.000007
  106  BR 7  Y    0.000012  -0.000004  -0.000024   0.000000   0.000003
  107  BR 7  Z    0.000002  -0.000001  -0.000008   0.000002   0.000001
  108  BR 7  S    0.000002   0.000009  -0.000039   0.000002  -0.000007
  109  BR 7  X   -0.000002   0.000003  -0.000019   0.000006  -0.000002
  110  BR 7  Y   -0.000008  -0.000001   0.000010   0.000008   0.000002
  111  BR 7  Z   -0.000000  -0.000001   0.000003  -0.000000   0.000001
  112  BR 7 XX    0.000009  -0.000001  -0.004212   0.000008   0.000003
  113  BR 7 YY    0.000009  -0.000001  -0.004161   0.000008   0.000003
  114  BR 7 ZZ    0.000009  -0.000001  -0.004148   0.000008   0.000003
  115  BR 7 XY   -0.000000   0.000000   0.000041  -0.000000  -0.000000
  116  BR 7 XZ   -0.000000   0.000000   0.000013  -0.000000  -0.000000
  117  BR 7 YZ    0.000000  -0.000000  -0.000007  -0.000000   0.000000
  118  BR 7 XX    0.000006  -0.000001   0.000886   0.000006   0.000002
  119  BR 7 YY    0.000006  -0.000001   0.000877   0.000007   0.000002
  120  BR 7 ZZ    0.000007  -0.000001   0.000875   0.000007   0.000002
  121  BR 7 XY    0.000001  -0.000000  -0.000007   0.000000   0.000000
  122  BR 7 XZ    0.000000  -0.000000  -0.000002   0.000000   0.000000
  123  BR 7 YZ   -0.000000   0.000000   0.000001  -0.000000  -0.000000
  124  C  8  S   -0.000003   0.000001   0.000002  -0.000002  -0.000002
  125  C  8  S   -0.000012   0.000008   0.000014  -0.000011  -0.000012
  126  C  8  X   -0.000015   0.000002   0.000008  -0.000000   0.000001
  127  C  8  Y   -0.000009   0.000001  -0.000004   0.000002  -0.000001
  128  C  8  Z    0.000001  -0.000000  -0.000001   0.000000  -0.000001
  129  C  8  S    0.000205  -0.000124  -0.000239   0.000206   0.000211
  130  C  8  X    0.000156  -0.000073  -0.000145   0.000063   0.000104
  131  C  8  Y    0.000101  -0.000052  -0.000031   0.000085   0.000044
  132  C  8  Z   -0.000015   0.000007   0.000018  -0.000003  -0.000008
  133  BR 9  S    0.000001  -0.000038  -0.000007   0.000004   0.313165
  134  BR 9  S    0.000002  -0.000123  -0.000022   0.000011   1.034771
  135  BR 9  X   -0.000000   0.000000   0.000000  -0.000000   0.001072
  136  BR 9  Y    0.000000  -0.000001  -0.000000  -0.000000  -0.000469
  137  BR 9  Z    0.000000  -0.000000  -0.000000   0.000000  -0.000322
  138  BR 9  S   -0.000009   0.000026   0.000009  -0.000005   0.010426
  139  BR 9  X    0.000001  -0.000001  -0.000001   0.000001   0.000082
  140  BR 9  Y   -0.000001   0.000002   0.000001   0.000000  -0.000036
  141  BR 9  Z   -0.000000   0.000001   0.000000  -0.000000  -0.000025
  142  BR 9  S   -0.000011   0.000030   0.000012  -0.000007  -0.000078
  143  BR 9  X   -0.000005   0.000009   0.000006  -0.000005  -0.000047
  144  BR 9  Y    0.000004  -0.000012  -0.000003  -0.000000   0.000021
  145  BR 9  Z    0.000002  -0.000004  -0.000002   0.000002   0.000016
  146  BR 9  S    0.000010   0.000002  -0.000008   0.000010  -0.000040
  147  BR 9  X   -0.000003   0.000002   0.000003  -0.000003   0.000019
  148  BR 9  Y    0.000003   0.000010  -0.000000   0.000002  -0.000006
  149  BR 9  Z    0.000001  -0.000001  -0.000001   0.000001  -0.000008
  150  BR 9 XX   -0.000003   0.000010   0.000003  -0.000002  -0.004213
  151  BR 9 YY   -0.000003   0.000010   0.000003  -0.000002  -0.004163
  152  BR 9 ZZ   -0.000003   0.000010   0.000003  -0.000002  -0.004157
  153  BR 9 XY    0.000000  -0.000000  -0.000000  -0.000000   0.000036
  154  BR 9 XZ    0.000000  -0.000000  -0.000000   0.000000   0.000023
  155  BR 9 YZ   -0.000000   0.000000   0.000000   0.000000  -0.000012
  156  BR 9 XX   -0.000002   0.000006   0.000002  -0.000001   0.000884
  157  BR 9 YY   -0.000002   0.000007   0.000003  -0.000002   0.000875
  158  BR 9 ZZ   -0.000002   0.000007   0.000002  -0.000001   0.000874
  159  BR 9 XY   -0.000000   0.000001   0.000000   0.000000  -0.000006
  160  BR 9 XZ   -0.000000   0.000000   0.000000  -0.000000  -0.000004
  161  BR 9 YZ    0.000000  -0.000000  -0.000000  -0.000000   0.000002
  162  C 10  S    0.000002  -0.000002  -0.000002   0.000001   0.000002
  163  C 10  S    0.000009  -0.000012  -0.000013   0.000008   0.000010
  164  C 10  X    0.000008   0.000000  -0.000000   0.000000  -0.000007
  165  C 10  Y    0.000008   0.000000   0.000000   0.000003   0.000007
  166  C 10  Z   -0.000001  -0.000000   0.000000   0.000000   0.000003
  167  C 10  S   -0.000204   0.000197   0.000201  -0.000116  -0.000200
  168  C 10  X   -0.000039   0.000038  -0.000054   0.000001   0.000032
  169  C 10  Y   -0.000206   0.000118   0.000102  -0.000113  -0.000204
  170  C 10  Z   -0.000002  -0.000002   0.000014  -0.000005  -0.000019
  171  BR11  S    0.313165   0.000003   0.000019  -0.000001  -0.000001
  172  BR11  S    1.034772   0.000012   0.000066  -0.000003  -0.000005
  173  BR11  X   -0.001078  -0.000000  -0.000000   0.000000   0.000000
  174  BR11  Y   -0.000568  -0.000000  -0.000001  -0.000000   0.000000
  175  BR11  Z    0.000061   0.000000  -0.000000  -0.000000  -0.000000
  176  BR11  S    0.010430   0.000010   0.000027  -0.000005  -0.000009
  177  BR11  X   -0.000082   0.000001   0.000001  -0.000001  -0.000001
  178  BR11  Y   -0.000044   0.000001   0.000002   0.000000  -0.000001
  179  BR11  Z    0.000005  -0.000000   0.000000   0.000000   0.000000
  180  BR11  S   -0.000076   0.000013   0.000030  -0.000007  -0.000011
  181  BR11  X    0.000047  -0.000007  -0.000008   0.000006   0.000005
  182  BR11  Y    0.000026  -0.000004  -0.000013   0.000000   0.000004
  183  BR11  Z   -0.000002   0.000000  -0.000000  -0.000000  -0.000000
  184  BR11  S   -0.000041  -0.000007   0.000002   0.000009   0.000009
  185  BR11  X   -0.000020  -0.000003  -0.000004   0.000002   0.000003
  186  BR11  Y   -0.000009  -0.000001   0.000010   0.000003   0.000005
  187  BR11  Z    0.000001   0.000000   0.000001   0.000000  -0.000000
  188  BR11 XX   -0.004210   0.000004   0.000009  -0.000002  -0.000003
  189  BR11 YY   -0.004170   0.000003   0.000009  -0.000002  -0.000003
  190  BR11 ZZ   -0.004149   0.000003   0.000009  -0.000002  -0.000003
  191  BR11 XY   -0.000044   0.000000   0.000000   0.000000  -0.000000
  192  BR11 XZ    0.000004   0.000000   0.000000   0.000000   0.000000
  193  BR11 YZ    0.000003  -0.000000  -0.000000  -0.000000   0.000000
  194  BR11 XX    0.000884   0.000002   0.000007  -0.000001  -0.000002
  195  BR11 YY    0.000877   0.000003   0.000006  -0.000002  -0.000002
  196  BR11 ZZ    0.000874   0.000003   0.000007  -0.000001  -0.000002
  197  BR11 XY    0.000008  -0.000001  -0.000001  -0.000000   0.000001
  198  BR11 XZ   -0.000001   0.000000  -0.000000  -0.000000  -0.000000
  199  BR11 YZ   -0.000000   0.000000   0.000000   0.000000  -0.000000
  200  C 12  S    0.000001   0.000000   0.000000   0.000000   0.000001
  201  C 12  S    0.000006   0.000001   0.000002  -0.000001   0.000004
  202  C 12  X    0.000003  -0.000000  -0.000000  -0.000000  -0.000003
  203  C 12  Y   -0.000007   0.000001   0.000001  -0.000003  -0.000005
  204  C 12  Z    0.000001  -0.000000   0.000000   0.000000   0.000001
  205  C 12  S   -0.000113   0.000027   0.000014  -0.000042  -0.000100
  206  C 12  X    0.000007  -0.000007   0.000013   0.000003   0.000007
  207  C 12  Y   -0.000023   0.000012   0.000007  -0.000013  -0.000036
  208  C 12  Z   -0.000012   0.000003  -0.000005  -0.000004  -0.000007
  209  C 13  S   -0.000000   0.000000  -0.000000  -0.000000  -0.000000
  210  C 13  S   -0.000001   0.000001  -0.000001  -0.000001  -0.000001
  211  C 13  X   -0.000002   0.000000  -0.000000  -0.000001  -0.000002
  212  C 13  Y    0.000001   0.000000  -0.000000  -0.000000  -0.000003
  213  C 13  Z   -0.000000   0.000000   0.000000  -0.000000   0.000000
  214  C 13  S    0.000018  -0.000003  -0.000001   0.000005  -0.000001
  215  C 13  X   -0.000003  -0.000001   0.000000   0.000000   0.000001
  216  C 13  Y    0.000002   0.000000   0.000003   0.000001   0.000017
  217  C 13  Z   -0.000002  -0.000002   0.000003  -0.000000   0.000000
  218  H 14  S    0.000002   0.000000  -0.000000   0.000000   0.000000
  219  H 14  S    0.000000   0.000002  -0.000002  -0.000002   0.000002
  220  H 15  S   -0.000000  -0.000001   0.000000   0.000001   0.000003
  221  H 15  S    0.000031  -0.000001   0.000012   0.000006   0.000010
  222  H 16  S   -0.000001  -0.000001  -0.000000  -0.000000  -0.000003
  223  H 16  S   -0.000001   0.000005   0.000001  -0.000001   0.000011
  224  H 17  S   -0.000000   0.000000   0.000000  -0.000000   0.000001
  225  H 17  S   -0.000004   0.000000   0.000001  -0.000001   0.000007
  226  H 18  S   -0.000001   0.000001  -0.000000  -0.000000  -0.000003
  227  H 18  S   -0.000001   0.000001  -0.000002  -0.000001  -0.000001

                     11         12         13         14         15
                  -58.5432   -58.5419   -58.5418   -58.5415   -58.5411
                     A          A          A          A          A   
    1  BR 1  S    0.000000   0.000004  -0.000005  -0.000417   0.000000
    2  BR 1  S    0.000006   0.000027  -0.000031  -0.001481  -0.000004
    3  BR 1  X    0.000078   0.000148  -0.000518  -0.047025   0.000209
    4  BR 1  Y   -0.000181  -0.005511   0.008289   0.989412  -0.000993
    5  BR 1  Z   -0.000034  -0.000548   0.000866   0.101770  -0.000116
    6  BR 1  S    0.000042   0.000156  -0.000156  -0.000828  -0.000042
    7  BR 1  X    0.000004   0.000000  -0.000010  -0.000533   0.000005
    8  BR 1  Y   -0.000006  -0.000088   0.000119   0.011225  -0.000007
    9  BR 1  Z   -0.000001  -0.000008   0.000013   0.001155  -0.000001
   10  BR 1  S    0.000065   0.000196  -0.000195  -0.000509  -0.000067
   11  BR 1  X   -0.000014  -0.000003   0.000013   0.000092  -0.000013
   12  BR 1  Y    0.000033   0.000167  -0.000170  -0.001949  -0.000034
   13  BR 1  Z    0.000006   0.000016  -0.000018  -0.000201  -0.000002
   14  BR 1  S   -0.000057  -0.000195   0.000194   0.000379   0.000057
   15  BR 1  X   -0.000014  -0.000043  -0.000036  -0.000023  -0.000011
   16  BR 1  Y    0.000025   0.000077  -0.000079   0.000485  -0.000026
   17  BR 1  Z    0.000005   0.000014  -0.000004   0.000050  -0.000002
   18  BR 1 XX    0.000013   0.000051  -0.000050  -0.000277  -0.000013
   19  BR 1 YY    0.000013   0.000059  -0.000060  -0.000464  -0.000014
   20  BR 1 ZZ    0.000013   0.000051  -0.000051  -0.000278  -0.000013
   21  BR 1 XY   -0.000001  -0.000002  -0.000001   0.000010  -0.000001
   22  BR 1 XZ   -0.000000  -0.000000  -0.000000   0.000001  -0.000000
[...]
              8  BR 1  Y      1.99568     1.95227
              9  BR 1  Z      1.99819     1.97476
             10  BR 1  S      1.56366     1.02406
             11  BR 1  X      1.41917     1.32255
             12  BR 1  Y      0.86805     0.81188
             13  BR 1  Z      1.38909     1.28258
             14  BR 1  S      0.37510     0.59562
             15  BR 1  X      0.52456     0.65886
             16  BR 1  Y      0.04468     0.34024
             17  BR 1  Z      0.55222     0.68637
             18  BR 1 XX      0.93276     1.25524
             19  BR 1 YY      0.93024     1.25151
             20  BR 1 ZZ      0.93335     1.25518
             21  BR 1 XY      1.39581     1.35073
             22  BR 1 XZ      1.39925     1.35462
             23  BR 1 YZ      1.39685     1.35227
             24  BR 1 XX      0.39689     0.59147
             25  BR 1 YY      0.40131     0.59355
             26  BR 1 ZZ      0.39768     0.59133
             27  BR 1 XY      0.60228     0.64852
             28  BR 1 XZ      0.60067     0.64534
             29  BR 1 YZ      0.60254     0.64746
             30  C  2  S      1.99773     1.98838
             31  C  2  S      0.68164     0.55703
             32  C  2  X      0.74073     0.69162
             33  C  2  Y      0.59159     0.57097
             34  C  2  Z      0.61278     0.57361
             35  C  2  S      0.51175     0.41228
             36  C  2  X      0.21596     0.39979
             37  C  2  Y      0.50832     0.47323
             38  C  2  Z      0.44349     0.49940
             39  C  3  S      1.99775     1.98843
             40  C  3  S      0.68532     0.55931
             41  C  3  X      0.63750     0.60671
             42  C  3  Y      0.70908     0.66825
             43  C  3  Z      0.59331     0.55466
             44  C  3  S      0.51084     0.41221
             45  C  3  X      0.41453     0.45228
             46  C  3  Y      0.30290     0.41688
             47  C  3  Z      0.44713     0.49499
             48  C  4  S      1.99775     1.98843
             49  C  4  S      0.68533     0.55930
             50  C  4  X      0.61891     0.59130
             51  C  4  Y      0.73880     0.69267
             52  C  4  Z      0.58210     0.54557
             53  C  4  S      0.51074     0.41222
             54  C  4  X      0.44941     0.46214
             55  C  4  Y      0.24529     0.40146
             56  C  4  Z      0.46984     0.50056
             57  BR 5  S      1.99868     1.99786
             58  BR 5  S      1.99810     1.91194
             59  BR 5  X      1.99977     1.99802
             60  BR 5  Y      1.99980     1.99833
             61  BR 5  Z      1.99984     1.99859
             62  BR 5  S      2.00313     0.78640
             63  BR 5  X      1.99667     1.96131
             64  BR 5  Y      1.99741     1.96819
             65  BR 5  Z      1.99808     1.97375
             66  BR 5  S      1.56370     1.02396
             67  BR 5  X      1.07610     1.00408
             68  BR 5  Y      1.23480     1.15274
             69  BR 5  Z      1.36579     1.26074
             70  BR 5  S      0.37468     0.59531
             71  BR 5  X      0.22902     0.46351
             72  BR 5  Y      0.35735     0.54682
             73  BR 5  Z      0.53252     0.67327
             74  BR 5 XX      0.93125     1.25297
             75  BR 5 YY      0.93163     1.25372
             76  BR 5 ZZ      0.93331     1.25513
             77  BR 5 XY      1.39617     1.35110
             78  BR 5 XZ      1.39749     1.35281
             79  BR 5 YZ      1.39838     1.35377
             80  BR 5 XX      0.39978     0.59256
             81  BR 5 YY      0.39836     0.59221
             82  BR 5 ZZ      0.39791     0.59132
             83  BR 5 XY      0.60209     0.64865
             84  BR 5 XZ      0.60186     0.64696
             85  BR 5 YZ      0.60137     0.64614
             86  C  6  S      1.99775     1.98845
             87  C  6  S      0.68298     0.55833
             88  C  6  X      0.60964     0.58282
             89  C  6  Y      0.73383     0.68666
             90  C  6  Z      0.59209     0.55656
             91  C  6  S      0.49555     0.40972
             92  C  6  X      0.45828     0.46089
             93  C  6  Y      0.29066     0.39714
             94  C  6  Z      0.49346     0.51279
             95  BR 7  S      1.99868     1.99786
             96  BR 7  S      1.99810     1.91194
             97  BR 7  X      1.99976     1.99791
             98  BR 7  Y      1.99981     1.99852
             99  BR 7  Z      1.99983     1.99851
            100  BR 7  S      2.00313     0.78640
            101  BR 7  X      1.99638     1.95868
            102  BR 7  Y      1.99787     1.97247
            103  BR 7  Z      1.99790     1.97209
            104  BR 7  S      1.56370     1.02400
            105  BR 7  X      1.01576     0.94791
            106  BR 7  Y      1.33332     1.24431
            107  BR 7  Z      1.32754     1.22527
            108  BR 7  S      0.37468     0.59534
            109  BR 7  X      0.17782     0.42975
            110  BR 7  Y      0.44188     0.60270
            111  BR 7  Z      0.49938     0.65129
            112  BR 7 XX      0.93107     1.25267
            113  BR 7 YY      0.93214     1.25448
            114  BR 7 ZZ      0.93326     1.25506
            115  BR 7 XY      1.39630     1.35126
            116  BR 7 XZ      1.39696     1.35222
            117  BR 7 YZ      1.39850     1.35382
            118  BR 7 XX      0.40028     0.59274
            119  BR 7 YY      0.39753     0.59184
            120  BR 7 ZZ      0.39826     0.59130
            121  BR 7 XY      0.60202     0.64833
            122  BR 7 XZ      0.60214     0.64756
            123  BR 7 YZ      0.60113     0.64607
            124  C  8  S      1.99775     1.98845
            125  C  8  S      0.68295     0.55834
            126  C  8  X      0.63286     0.60254
            127  C  8  Y      0.69690     0.65560
            128  C  8  Z      0.60579     0.56791
            129  C  8  S      0.49583     0.40975
            130  C  8  X      0.42655     0.45133
            131  C  8  Y      0.34899     0.41333
            132  C  8  Z      0.46694     0.50623
            133  BR 9  S      1.99868     1.99786
            134  BR 9  S      1.99810     1.91190
            135  BR 9  X      1.99975     1.99792
            136  BR 9  Y      1.99981     1.99850
            137  BR 9  Z      1.99983     1.99853
            138  BR 9  S      2.00313     0.78629
            139  BR 9  X      1.99643     1.95908
            140  BR 9  Y      1.99784     1.97218
            141  BR 9  Z      1.99793     1.97239
            142  BR 9  S      1.55833     1.02257
            143  BR 9  X      1.02480     0.95537
            144  BR 9  Y      1.32501     1.23784
            145  BR 9  Z      1.33388     1.23213
            146  BR 9  S      0.37699     0.60072
            147  BR 9  X      0.18251     0.43518
            148  BR 9  Y      0.45043     0.60884
            149  BR 9  Z      0.51098     0.66122
            150  BR 9 XX      0.93099     1.25248
            151  BR 9 YY      0.93207     1.25435
            152  BR 9 ZZ      0.93325     1.25498
            153  BR 9 XY      1.39624     1.35118
            154  BR 9 XZ      1.39699     1.35223
            155  BR 9 YZ      1.39847     1.35379
            156  BR 9 XX      0.40018     0.59257
            157  BR 9 YY      0.39762     0.59179
            158  BR 9 ZZ      0.39821     0.59108
            159  BR 9 XY      0.60202     0.64837
            160  BR 9 XZ      0.60208     0.64753
            161  BR 9 YZ      0.60116     0.64608
            162  C 10  S      1.99784     1.98821
            163  C 10  S      0.70101     0.55036
            164  C 10  X      0.70372     0.65610
            165  C 10  Y      0.75492     0.70861
            166  C 10  Z      0.54259     0.50313
            167  C 10  S      0.43798     0.37380
            168  C 10  X      0.07178     0.38157
            169  C 10  Y      0.29993     0.39152
            170  C 10  Z      0.36405     0.45061
            171  BR11  S      1.99868     1.99786
            172  BR11  S      1.99810     1.91190
            173  BR11  X      1.99977     1.99805
            174  BR11  Y      1.99979     1.99832
            175  BR11  Z      1.99983     1.99858
            176  BR11  S      2.00313     0.78629
            177  BR11  X      1.99675     1.96197
            178  BR11  Y      1.99740     1.96810
            179  BR11  Z      1.99806     1.97358
            180  BR11  S      1.55834     1.02254
            181  BR11  X      1.09311     1.01767
            182  BR11  Y      1.23015     1.15011
            183  BR11  Z      1.36045     1.25758
            184  BR11  S      0.37698     0.60068
            185  BR11  X      0.24212     0.47563
            186  BR11  Y      0.36565     0.55344
            187  BR11  Z      0.53592     0.67604
            188  BR11 XX      0.93127     1.25293
            189  BR11 YY      0.93160     1.25366
            190  BR11 ZZ      0.93327     1.25502
            191  BR11 XY      1.39612     1.35102
            192  BR11 XZ      1.39746     1.35274
            193  BR11 YZ      1.39828     1.35366
            194  BR11 XX      0.39964     0.59229
            195  BR11 YY      0.39842     0.59212
            196  BR11 ZZ      0.39796     0.59113
            197  BR11 XY      0.60203     0.64867
            198  BR11 XZ      0.60181     0.64701
            199  BR11 YZ      0.60141     0.64623
            200  C 12  S      1.99787     1.98834
            201  C 12  S      0.63945     0.54166
            202  C 12  X      0.73428     0.67407
            203  C 12  Y      0.63702     0.59634
            204  C 12  Z      0.70463     0.64983
            205  C 12  S      0.73315     0.41777
            206  C 12  X      0.40675     0.47209
            207  C 12  Y      0.18076     0.39201
            208  C 12  Z      0.33097     0.45873
            209  C 13  S      1.99772     1.98921
            210  C 13  S      0.64520     0.55126
            211  C 13  X      0.70649     0.64203
            212  C 13  Y      0.69520     0.63424
            213  C 13  Z      0.67634     0.62220
            214  C 13  S      0.70978     0.44306
            215  C 13  X      0.37176     0.48988
            216  C 13  Y      0.35621     0.47783
            217  C 13  Z      0.29011     0.45337
            218  H 14  S      0.53829     0.52580
            219  H 14  S      0.25525     0.34542
            220  H 15  S      0.53838     0.52589
            221  H 15  S      0.25515     0.34535
            222  H 16  S      0.53725     0.51773
            223  H 16  S      0.28737     0.36570
            224  H 17  S      0.53744     0.51730
            225  H 17  S      0.29432     0.36693
            226  H 18  S      0.53725     0.51772
            227  H 18  S      0.28750     0.36578

          ----- MULLIKEN ATOMIC OVERLAP POPULATIONS -----
          (OFF-DIAGONAL ELEMENTS NEED TO BE MULTIPLIED BY 2)

             1           2           3           4           5

    1   34.6901246
    2    0.2306813   5.8865830
    3   -0.0744293   0.2163089   5.8744152
    4   -0.0744085   0.2162519   0.0040463   5.8742100
    5   -0.0310856  -0.0737987   0.2310856   0.0044733  34.6870618
    6    0.0046564  -0.0065239   0.2100626  -0.1110697  -0.0745067
    7   -0.0310869  -0.0738015   0.0044729   0.2311373  -0.0000389
    8    0.0046518  -0.0065451  -0.1110211   0.2101645  -0.0013070
    9   -0.0000537   0.0040152  -0.0713669  -0.0012406  -0.0312142
   10   -0.0013578  -0.0921577   0.0096205   0.0095951   0.0043225
   11   -0.0000537   0.0040214  -0.0012417  -0.0714126  -0.0000068
   12   -0.0000086  -0.0009589   0.0060987   0.0061036   0.0000031
   13   -0.0000004  -0.0000141  -0.0000701  -0.0000733   0.0000042
   14   -0.0000002  -0.0000235   0.0003839  -0.0000154   0.0000030
   15   -0.0000002  -0.0000236  -0.0000149   0.0003858   0.0000031
   16   -0.0000000  -0.0000106  -0.0000015   0.0000253   0.0000029
   17    0.0000000   0.0000000   0.0000003   0.0000004  -0.0000001
   18   -0.0000000  -0.0000110   0.0000256  -0.0000035   0.0000002

             6           7           8           9          10

    6    5.8510792
    7   -0.0013068  34.6870560
    8    0.0386844  -0.0744242   5.8512204
    9    0.2289467  -0.0000068   0.0045897  34.7180850
   10    0.2462225   0.0043147   0.2464455  -0.0815603   5.5745205
   11    0.0045951  -0.0311869   0.2288275  -0.0000866  -0.0815614
   12   -0.0311788   0.0000029  -0.0311395  -0.0126973   0.2121191
   13   -0.0049702   0.0000042  -0.0051237  -0.0037455  -0.0702480
   14   -0.0069434   0.0000031   0.0043423  -0.0111191  -0.0518878
   15    0.0043441   0.0000030  -0.0069452   0.0014009  -0.0519809
   16    0.0020121   0.0000002   0.0000929  -0.0002845  -0.0046169
   17    0.0000328  -0.0000001   0.0000377   0.0000853   0.0066856
   18    0.0001000   0.0000029   0.0020074  -0.0000519  -0.0046733

            11          12          13          14          15

   11   34.7180031
   12   -0.0127516   5.2431450
   13   -0.0036522   0.2806723   5.1627854
   14    0.0014027   0.4142510  -0.0388165   0.5139401
   15   -0.0111302   0.4143886  -0.0387933  -0.0305337   0.5138497
   16   -0.0000514  -0.0410373   0.3909066  -0.0030701   0.0037482
   17    0.0000852  -0.0410690   0.3890244  -0.0021225  -0.0022344
   18   -0.0003013  -0.0410573   0.3909128   0.0037465  -0.0029390

            16          17          18

   16    0.5324779
   17   -0.0272165   0.5357092
   18   -0.0283494  -0.0272586   0.5326015

          TOTAL MULLIKEN AND LOWDIN ATOMIC POPULATIONS
       ATOM         MULL.POP.    CHARGE          LOW.POP.     CHARGE
    1 BR           34.717629    0.282371        34.853760    0.146240
    2 C             6.303993   -0.303993         6.166306   -0.166306
    3 C             6.298375   -0.298375         6.153733   -0.153733
    4 C             6.298170   -0.298170         6.153659   -0.153659
    5 BR           34.715002    0.284998        34.852163    0.147837
    6 C             6.354236   -0.354236         6.153365   -0.153365
    7 BR           34.715145    0.284855        34.852296    0.147704
    8 C             6.354558   -0.354558         6.153469   -0.153469
    9 BR           34.743695    0.256305        34.884982    0.115018
   10 C             5.873802    0.126198         6.003917   -0.003917
   11 BR           34.743498    0.256502        34.884809    0.115191
   12 C             6.364886   -0.364886         6.190832   -0.190832
   13 C             6.448803   -0.448803         6.303087   -0.303087
   14 H             0.793540    0.206460         0.871214    0.128786
   15 H             0.793528    0.206472         0.871238    0.128762
   16 H             0.824628    0.175372         0.883432    0.116568
   17 H             0.831760    0.168240         0.884236    0.115764
   18 H             0.824752    0.175248         0.883502    0.116498

          -------------------------------
          BOND ORDER AND VALENCE ANALYSIS     BOND ORDER THRESHOLD=0.050
          -------------------------------

                   BOND                       BOND                       BOND
  ATOM PAIR DIST  ORDER      ATOM PAIR DIST  ORDER      ATOM PAIR DIST  ORDER
    1   2  1.930  1.081        2   3  1.389  1.410        2   4  1.389  1.411
    2  10  2.813  0.090        3   5  1.929  1.084        3   6  1.388  1.414
    3   8  2.765  0.085        4   6  2.765  0.085        4   7  1.929  1.084
    4   8  1.388  1.414        6   9  1.941  1.084        6  10  1.395  1.387
    8  10  1.396  1.386        8  11  1.941  1.084       10  12  1.517  0.918
   12  13  1.538  0.912       12  14  1.078  0.945       12  15  1.078  0.945
   13  16  1.082  0.953       13  17  1.083  0.956       13  18  1.082  0.953

                       TOTAL       BONDED        FREE
      ATOM            VALENCE     VALENCE     VALENCE
    1 BR                1.057       1.057      -0.000
    2 C                 3.889       3.889       0.000
    3 C                 3.897       3.897       0.000
    4 C                 3.897       3.897       0.000
    5 BR                1.059       1.059       0.000
    6 C                 3.914       3.914       0.000
    7 BR                1.059       1.059       0.000
    8 C                 3.914       3.914       0.000
    9 BR                1.051       1.051       0.000
   10 C                 3.594       3.594       0.000
   11 BR                1.051       1.051       0.000
   12 C                 3.720       3.720      -0.000
   13 C                 3.722       3.722      -0.000
   14 H                 0.912       0.912      -0.000
   15 H                 0.912       0.912      -0.000
   16 H                 0.927       0.927      -0.000
   17 H                 0.931       0.931       0.000
   18 H                 0.928       0.928      -0.000

          ---------------------
          ELECTROSTATIC MOMENTS
          ---------------------

 POINT   1           X           Y           Z (BOHR)    CHARGE
                 0.238928   -0.279127    0.070482        0.00 (A.U.)
         DX          DY          DZ         /D/  (DEBYE)
     0.178373   -2.061195   -0.127837    2.072844
 ...... END OF PROPERTY EVALUATION ......
 STEP CPU TIME =     0.14 TOTAL CPU TIME =     2554.8 (   42.6 MIN)
 TOTAL WALL CLOCK TIME=     2557.2 SECONDS, CPU UTILIZATION IS  99.91%
  $VIB   
          IVIB=   0 IATOM=   0 ICOORD=   0 E=   -13165.9553104599
  8.281486491E-06-2.068340593E-05-1.439557278E-05-1.041952560E-04-6.694239297E-05
  2.306472453E-05 9.957507851E-05 8.044231181E-05-7.300678127E-06 2.551315799E-05
  1.035548878E-04 1.479626758E-05-1.899201605E-04-1.443647619E-04 4.028273351E-05
 -1.000295927E-04 8.116783109E-05 8.404211512E-05 1.324184685E-04-3.104066899E-05
 -5.314448408E-05-1.717137754E-05-1.399891502E-05 4.487058385E-05 1.244984428E-04
 -6.114998881E-05-7.030644049E-05 6.776310170E-05 4.739039522E-05-1.056898482E-04
 -7.268057275E-05-3.557152450E-05-2.030213003E-05-7.928296459E-05 8.413228143E-06
  1.176525588E-05 3.177511708E-05-6.746081534E-05 1.132087061E-04-3.617040057E-05
 -5.573243139E-06 3.797204824E-05 1.516356327E-04 3.963627087E-05-1.340757479E-05
  9.125059579E-05 8.568566033E-06-8.444265195E-05-8.722168203E-05 1.050854094E-04
 -5.684966402E-05-4.604197861E-05-2.748069370E-05 5.583384716E-05
  1.783725019E-01-2.061194625E+00-1.278368766E-01
 ......END OF GEOMETRY SEARCH......
 STEP CPU TIME =     0.01 TOTAL CPU TIME =     2554.8 (   42.6 MIN)
 TOTAL WALL CLOCK TIME=     2557.2 SECONDS, CPU UTILIZATION IS  99.91%
                993235  WORDS OF DYNAMIC MEMORY USED
 EXECUTION OF GAMESS TERMINATED NORMALLY Thu Mar  2 12:11:02 2023
 DDI: 263640 bytes (0.3 MB / 0 MWords) used by master data server.

 ----------------------------------------
 CPU timing information for all processes
 ========================================
 0: 2224.231 + 330.706 = 2554.937
 1: 2457.46 + 102.263 = 2559.310
 ----------------------------------------
----- accounting info -----
Files used on the master node glados12.cerit-sc.cz were:
-rw------- 1 wrojasv meta      1252 Mar  2 11:28 /scratch.ssd/wrojasv/job_14600586.meta-pbs.metacentrum.cz/tmp/bromide.F05
-rw------- 1 wrojasv meta 990628048 Mar  2 12:10 /scratch.ssd/wrojasv/job_14600586.meta-pbs.metacentrum.cz/tmp/bromide.F08
-rw------- 1 wrojasv meta   5627840 Mar  2 12:11 /scratch.ssd/wrojasv/job_14600586.meta-pbs.metacentrum.cz/tmp/bromide.F10
-rw------- 1 wrojasv meta        21 Mar  2 11:28 /scratch.ssd/wrojasv/job_14600586.meta-pbs.metacentrum.cz/tmp/bromide.nodes.mpd
Files used on node glados12.cerit-sc.cz were:
-rw------- 1 wrojasv meta 21 Mar  2 11:28 /scratch.ssd/wrojasv/job_14600586.meta-pbs.metacentrum.cz/tmp/bromide.nodes.mpd
Thu Mar  2 12:11:09 CET 2023
3.7u 4.1s 42:51.04 0.3% 0+0k 160+4464io 12pf+0w
