----- GAMESS execution script 'rungms' -----
This job is running on host glados12.cerit-sc.cz
under operating system Linux at Wed Mar 1 17:04:11 CET 2023
PBS has assigned the following compute nodes to this run:
glados12.cerit-sc.cz
Available scratch disk space (Kbyte units) at beginning of the job is
Filesystem      1K-blocks      Used  Available Use% Mounted on
/dev/sdb       3405764784 323096948 3082651452  10% /scratch.ssd
GAMESS temporary binary files will be written to /scratch.ssd/wrojasv/job_14595088.meta-pbs.metacentrum.cz/tmp
GAMESS supplementary output files will be written to /scratch.ssd/wrojasv/job_14595088.meta-pbs.metacentrum.cz
Copying input file coumarin.inp to your run's scratch directory...
MPI kickoff will run GAMESS on 1 cores in 1 nodes.
The binary to be executed is /software/gamess/dec2014/bin/gamess.00.x
MPI will run 1 compute processes and 1 data servers,
    placing  of each process type onto each node.
The scratch disk space on each node is /scratch.ssd/wrojasv/job_14595088.meta-pbs.metacentrum.cz/tmp, with free space
Filesystem      1K-blocks      Used  Available Use% Mounted on
/dev/sdb       3405764784 323154848 3082593552  10% /scratch.ssd
          ******************************************************
          *         GAMESS VERSION =  5 DEC 2014 (R1)          *
          *             FROM IOWA STATE UNIVERSITY             *
          * M.W.SCHMIDT, K.K.BALDRIDGE, J.A.BOATZ, S.T.ELBERT, *
          *   M.S.GORDON, J.H.JENSEN, S.KOSEKI, N.MATSUNAGA,   *
          *          K.A.NGUYEN, S.J.SU, T.L.WINDUS,           *
          *       TOGETHER WITH M.DUPUIS, J.A.MONTGOMERY       *
          *         J.COMPUT.CHEM.  14, 1347-1363(1993)        *
          **************** 64 BIT INTEL VERSION ****************

  SINCE 1993, STUDENTS AND POSTDOCS WORKING AT IOWA STATE UNIVERSITY
  AND ALSO IN THEIR VARIOUS JOBS AFTER LEAVING ISU HAVE MADE IMPORTANT
  CONTRIBUTIONS TO THE CODE:
     IVANA ADAMOVIC, CHRISTINE AIKENS, YURI ALEXEEV, POOJA ARORA,
     ANDREY ASADCHEV, ROB BELL, PRADIPTA BANDYOPADHYAY, JONATHAN BENTZ,
     BRETT BODE, KURT BRORSEN, CALEB CARLIN, GALINA CHABAN, WEI CHEN,
     CHEOL HO CHOI, PAUL DAY, ALBERT DEFUSCO, NUWAN DESILVA, TIM DUDLEY,
     DMITRI FEDOROV, GRAHAM FLETCHER, MARK FREITAG, KURT GLAESEMANN,
     DAN KEMP, GRANT MERRILL, NORIYUKI MINEZAWA, JONATHAN MULLIN,
     TAKESHI NAGATA, SEAN NEDD, HEATHER NETZLOFF, BOSILJKA NJEGIC, RYAN OLSON,
     MIKE PAK, SPENCER PRUITT, LUKE ROSKOP, JIM SHOEMAKER, LYUDMILA SLIPCHENKO,
     TONY SMITH, SAROM SOK, JIE SONG, TETSUYA TAKETSUGU, SIMON WEBB,
     PENG XU, SOOHAENG YOO, FEDERICO ZAHARIEV

  ADDITIONAL CODE HAS BEEN PROVIDED BY COLLABORATORS IN OTHER GROUPS:
     IOWA STATE UNIVERSITY:
          JOE IVANIC, AARON WEST, LAIMUTIS BYTAUTAS, KLAUS RUEDENBERG
     UNIVERSITY OF TOKYO: KIMIHIKO HIRAO, TAKAHITO NAKAJIMA,
          TAKAO TSUNEDA, MUNEAKI KAMIYA, SUSUMU YANAGISAWA,
          KIYOSHI YAGI, MAHITO CHIBA, SEIKEN TOKURA, NAOAKI KAWAKAMI
     UNIVERSITY OF AARHUS: FRANK JENSEN
     UNIVERSITY OF IOWA: VISVALDAS KAIRYS, HUI LI
     NATIONAL INST. OF STANDARDS AND TECHNOLOGY: WALT STEVENS, DAVID GARMER
     UNIVERSITY OF PISA: BENEDETTA MENNUCCI, JACOPO TOMASI
     UNIVERSITY OF MEMPHIS: HENRY KURTZ, PRAKASHAN KORAMBATH
     UNIVERSITY OF ALBERTA: TOBY ZENG, MARIUSZ KLOBUKOWSKI
     UNIVERSITY OF NEW ENGLAND: MARK SPACKMAN
     MIE UNIVERSITY: HIROAKI UMEDA
     NAT. INST. OF ADVANCED INDUSTRIAL SCIENCE AND TECHNOLOGY: KAZUO KITAURA
     MICHIGAN STATE UNIVERSITY:
          KAROL KOWALSKI, MARTA WLOCH, JEFFREY GOUR, JESSE LUTZ,
          WEI LI, PIOTR PIECUCH
     UNIVERSITY OF SILESIA: MONIKA MUSIAL, STANISLAW KUCHARSKI
     FACULTES UNIVERSITAIRES NOTRE-DAME DE LA PAIX:
          OLIVIER QUINET, BENOIT CHAMPAGNE
     UNIVERSITY OF CALIFORNIA - SANTA BARBARA: BERNARD KIRTMAN
     INSTITUTE FOR MOLECULAR SCIENCE:
          KAZUYA ISHIMURA, MICHIO KATOUDA, AND SHIGERU NAGASE
     UNIVERSITY OF NOTRE DAME: ANNA POMOGAEVA, DAN CHIPMAN
     KYUSHU UNIVERSITY:
          HARUYUKI NAKANO,
          FENG LONG GU, JACEK KORCHOWIEC, MARCIN MAKOWSKI, AND YURIKO AOKI,
          HIROTOSHI MORI AND EISAKU MIYOSHI
     PENNSYLVANIA STATE UNIVERSITY:
          TZVETELIN IORDANOV, CHET SWALINA, JONATHAN SKONE,
          SHARON HAMMES-SCHIFFER
     WASEDA UNIVERSITY:
          MASATO KOBAYASHI, TOMOKO AKAMA, TSUGUKI TOUMA,
          TAKESHI YOSHIKAWA, YASUHIRO IKABATA, HIROMI NAKAI
     NANJING UNIVERSITY: SHUHUA LI
     UNIVERSITY OF NEBRASKA:
          PEIFENG SU, DEJUN SI, NANDUN THELLAMUREGE, YALI WANG, HUI LI
     UNIVERSITY OF ZURICH: ROBERTO PEVERATI, KIM BALDRIDGE
     N. COPERNICUS UNIVERSITY AND JACKSON STATE UNIVERSITY:
          MARIA BARYSZ
     UNIVERSITY OF COPENHAGEN: CASPER STEINMANN
     TOKYO INSTITUTE OF TECHNOLOGY: HIROYA NAKATA
     NAGOYA UNIVERSITY: YOSHIO NISHIMOTO, STEPHAN IRLE

 EXECUTION OF GAMESS BEGUN Wed Mar  1 17:04:15 2023

            ECHO OF THE FIRST FEW INPUT CARDS -
 INPUT CARD> $CONTRL SCFTYP=RHF MULT=1 RUNTYP=OPTIMIZE $END                                 
 INPUT CARD> $STATPT OPTTOL=0.0005 NSTEP=100 $END                                           
 INPUT CARD> $BASIS  GBASIS=N31 NGAUSS=6 $END                                               
 INPUT CARD>                                                                                
 INPUT CARD> $DATA                                                                          
 INPUT CARD>Coumarin                                                                        
 INPUT CARD>C1                                                                              
 INPUT CARD>O      8.0     -3.2206031089    0.5572504837    0.0931853926                    
 INPUT CARD>C      6.0     -2.0664115132    0.1620713991   -0.0088960284                    
 INPUT CARD>O      8.0     -0.9878643483    1.0309554435   -0.0828884231                    
 INPUT CARD>C      6.0     -1.7664349694   -1.2801016798   -0.0735996679                    
 INPUT CARD>C      6.0      0.3328646724    0.5453947836   -0.0560551875                    
 INPUT CARD>C      6.0     -0.5168322451   -1.7540948257   -0.0535959108                    
 INPUT CARD>C      6.0      0.5979984311   -0.8220442841   -0.0032603940                    
 INPUT CARD>C      6.0      1.3546094599    1.4908801315   -0.0626874072                    
 INPUT CARD>C      6.0      1.9254875944   -1.2479339974    0.0737218575                    
 INPUT CARD>C      6.0      2.6765363648    1.0588744970    0.0089690010                    
 INPUT CARD>C      6.0      2.9613195980   -0.3069013500    0.0864160717                    
 INPUT CARD>H      1.0     -2.6266198544   -1.9359976987   -0.1258496257                    
 INPUT CARD>H      1.0     -0.3182317854   -2.8194327445   -0.0897489125                    
 INPUT CARD>H      1.0      1.1204458193    2.5497566746   -0.1181836898                    
 INPUT CARD>H      1.0      2.1696962979   -2.3061821073    0.1250811288                    
 INPUT CARD>H      1.0      3.4847369920    1.7859471997    0.0091257800                    
 INPUT CARD>H      1.0      3.9948205331   -0.6391200868    0.1528905705                    
 INPUT CARD> $END                                                                           
    1000000 WORDS OF MEMORY AVAILABLE

     BASIS OPTIONS
     -------------
     GBASIS=N31          IGAUSS=       6      POLAR=NONE    
     NDFUNC=       0     NFFUNC=       0     DIFFSP=       F
     NPFUNC=       0      DIFFS=       F     BASNAM=        


     RUN TITLE
     ---------
 Coumarin                                                                        

 THE POINT GROUP OF THE MOLECULE IS C1      
 THE ORDER OF THE PRINCIPAL AXIS IS     0

 ATOM      ATOMIC                      COORDINATES (BOHR)
           CHARGE         X                   Y                   Z
 O           8.0    -6.0860573910        1.0530507207        0.1760948581
 C           6.0    -3.9049515378        0.3062705347       -0.0168110561
 O           8.0    -1.8667929313        1.9482232938       -0.1566364072
 C           6.0    -3.3380780673       -2.4190414112       -0.1390832051
 C           6.0     0.6290230218        1.0306466961       -0.1059289446
 C           6.0    -0.9766713249       -3.3147585771       -0.1012815855
 C           6.0     1.1300531759       -1.5534384467       -0.0061612513
 C           6.0     2.5598406996        2.8173549291       -0.1184620225
 C           6.0     3.6386439462       -2.3582533058        0.1393141100
 C           6.0     5.0579203256        2.0009826547        0.0169489543
 C           6.0     5.5960826023       -0.5799594568        0.1633026964
 H           1.0    -4.9635917987       -3.6585051634       -0.2378213082
 H           1.0    -0.6013708750       -5.3279553279       -0.1696008523
 H           1.0     2.1173355826        4.8183414504       -0.2233347899
 H           1.0     4.1001314796       -4.3580522606        0.2363690597
 H           1.0     6.5851980542        3.3749508360        0.0172452236
 H           1.0     7.5491161777       -1.2077618373        0.2889212844

          INTERNUCLEAR DISTANCES (ANGS.)
          ------------------------------

                1 O          2 C          3 O          4 C          5 C     

   1 O       0.0000000    1.2242326 *  2.2892184 *  2.3491031 *  3.5566201  
   2 C       1.2242326 *  0.0000000    1.3869745 *  1.4744611 *  2.4301619 *
   3 O       2.2892184 *  1.3869745 *  0.0000000    2.4386971 *  1.4074141 *
   4 C       2.3491031 *  1.4744611 *  2.4386971 *  0.0000000    2.7820503 *
   5 C       3.5566201    2.4301619 *  1.4074141 *  2.7820503 *  0.0000000  
   6 C       3.5600897    2.4647286 *  2.8247538 *  1.3366288 *  2.4514574 *
   7 C       4.0612158    2.8403513 *  2.4402683 *  2.4094210 *  1.3939056 *
   8 C       4.6721013    3.6704238    2.3872835 *  4.1736528    1.3921023 *
   9 C       5.4535602    4.2344066    3.7020918    3.6950008    2.4019405 *
  10 C       5.9190348    4.8270208    3.6656582    5.0217150    2.4001430 *
  11 C       6.2420327    5.0504554    4.1730778    4.8295328    2.7668542 *
  12 H       2.5723684 *  2.1747196 *  3.3897162    1.0829809 *  3.8627359  
  13 H       4.4563678    3.4571717    3.9081894    2.1135499 *  3.4274081  
  14 H       4.7811571    3.9835969    2.5986486 *  4.7962364    2.1544397 *
  15 H       6.1037358    4.9045728    4.5989050    4.0725231    3.3968002  
  16 H       6.8175030    5.7838177    4.5368097    6.0813079    3.3878486  
  17 H       7.3141784    6.1160949    5.2604080    5.8012257    3.8544331  

                6 C          7 C          8 C          9 C         10 C     

   1 O       3.5600897    4.0612158    4.6721013    5.4535602    5.9190348  
   2 C       2.4647286 *  2.8403513 *  3.6704238    4.2344066    4.8270208  
   3 O       2.8247538 *  2.4402683 *  2.3872835 *  3.7020918    3.6656582  
   4 C       1.3366288 *  2.4094210 *  4.1736528    3.6950008    5.0217150  
   5 C       2.4514574 *  1.3939056 *  1.3921023 *  2.4019405 *  2.4001430 *
   6 C       0.0000000    1.4539943 *  3.7459631    2.4974657 *  4.2560914  
   7 C       1.4539943 *  0.0000000    2.4342578 *  1.3962578 *  2.8032704 *
   8 C       3.7459631    2.4342578 *  0.0000000    2.8010020 *  1.3925711 *
   9 C       2.4974657 *  1.3962578 *  2.8010020 *  0.0000000    2.4268565 *
  10 C       4.2560914    2.8032704 *  1.3925711 *  2.4268565 *  0.0000000  
  11 C       3.7698160    2.4204754 *  2.4157333 *  1.3995183 *  1.3972985 *
  12 H       2.1188471 *  3.4138078    5.2533483    4.6081387    6.0918717  
  13 H       1.0842943 *  2.1992087 *  4.6236271    2.7441953 *  4.9009844  
  14 H       4.6052132    3.4139713    1.0858784 *  3.8868206    2.1587763 *
  15 H       2.7484835 *  2.1654955 *  3.8880979    1.0872740 *  3.4049926  
  16 H       5.3430691    3.8903769    2.1516656 *  3.4117249    1.0871168 *
  17 H       4.6519691    3.4053259    3.3991307    2.1584858 *  2.1544772 *

               11 C         12 H         13 H         14 H         15 H     

   1 O       6.2420327    2.5723684 *  4.4563678    4.7811571    6.1037358  
   2 C       5.0504554    2.1747196 *  3.4571717    3.9835969    4.9045728  
   3 O       4.1730778    3.3897162    3.9081894    2.5986486 *  4.5989050  
   4 C       4.8295328    1.0829809 *  2.1135499 *  4.7962364    4.0725231  
   5 C       2.7668542 *  3.8627359    3.4274081    2.1544397 *  3.3968002  
   6 C       3.7698160    2.1188471 *  1.0842943 *  4.6052132    2.7484835 *
   7 C       2.4204754 *  3.4138078    2.1992087 *  3.4139713    2.1654955 *
   8 C       2.4157333 *  5.2533483    4.6236271    1.0858784 *  3.8880979  
   9 C       1.3995183 *  4.6081387    2.7441953 *  3.8868206    1.0872740 *
  10 C       1.3972985 *  6.0918717    4.9009844    2.1587763 *  3.4049926  
  11 C       0.0000000    5.8244381    4.1351306    3.4045811    2.1506478 *
  12 H       5.8244381    0.0000000    2.4719256 *  5.8448740    4.8171207  
  13 H       4.1351306    2.4719256 *  0.0000000    5.5586686    2.5493851 *
  14 H       3.4045811    5.8448740    5.5586686    0.0000000    4.9739568  
  15 H       2.1506478 *  4.8171207    2.5493851 *  4.9739568    0.0000000  
  16 H       2.1586928 *  7.1567992    5.9734305    2.4878676 *  4.2998023  
  17 H       1.0876177 *  6.7530038    4.8389108    4.3016795    2.4720331 *

               16 H         17 H     

   1 O       6.8175030    7.3141784  
   2 C       5.7838177    6.1160949  
   3 O       4.5368097    5.2604080  
   4 C       6.0813079    5.8012257  
   5 C       3.3878486    3.8544331  
   6 C       5.3430691    4.6519691  
   7 C       3.8903769    3.4053259  
   8 C       2.1516656 *  3.3991307  
   9 C       3.4117249    2.1584858 *
  10 C       1.0871168 *  2.1544772 *
  11 C       2.1586928 *  1.0876177 *
  12 H       7.1567992    6.7530038  
  13 H       5.9734305    4.8389108  
  14 H       2.4878676 *  4.3016795  
  15 H       4.2998023    2.4720331 *
  16 H       0.0000000    2.4822983 *
  17 H       2.4822983 *  0.0000000  

  * ... LESS THAN  3.000


     ATOMIC BASIS SET
     ----------------
 THE CONTRACTED PRIMITIVE FUNCTIONS HAVE BEEN UNNORMALIZED
 THE CONTRACTED BASIS FUNCTIONS ARE NOW NORMALIZED TO UNITY

  SHELL TYPE  PRIMITIVE        EXPONENT          CONTRACTION COEFFICIENT(S)

 O         

      1   S       1          5484.6716600    0.001831074430
      1   S       2           825.2349460    0.013950172200
      1   S       3           188.0469580    0.068445078098
      1   S       4            52.9645000    0.232714335992
      1   S       5            16.8975704    0.470192897984
      1   S       6             5.7996353    0.358520852987

      2   L       7            15.5396162   -0.110777549525    0.070874268231
      2   L       8             3.5999336   -0.148026262701    0.339752839147
      2   L       9             1.0137618    1.130767015354    0.727158577316

      3   L      10             0.2700058    1.000000000000    1.000000000000

 C         

      4   S      11          3047.5248800    0.001834737132
      4   S      12           457.3695180    0.014037322813
      4   S      13           103.9486850    0.068842622264
      4   S      14            29.2101553    0.232184443216
      4   S      15             9.2866630    0.467941348435
      4   S      16             3.1639270    0.362311985337

      5   L      17             7.8682723   -0.119332419775    0.068999066591
      5   L      18             1.8812885   -0.160854151696    0.316423960957
      5   L      19             0.5442493    1.143456437840    0.744308290898

      6   L      20             0.1687145    1.000000000000    1.000000000000

 O         

      7   S      21          5484.6716600    0.001831074430
      7   S      22           825.2349460    0.013950172200
      7   S      23           188.0469580    0.068445078098
      7   S      24            52.9645000    0.232714335992
      7   S      25            16.8975704    0.470192897984
      7   S      26             5.7996353    0.358520852987

      8   L      27            15.5396162   -0.110777549525    0.070874268231
      8   L      28             3.5999336   -0.148026262701    0.339752839147
      8   L      29             1.0137618    1.130767015354    0.727158577316

      9   L      30             0.2700058    1.000000000000    1.000000000000

 C         

     10   S      31          3047.5248800    0.001834737132
     10   S      32           457.3695180    0.014037322813
     10   S      33           103.9486850    0.068842622264
     10   S      34            29.2101553    0.232184443216
     10   S      35             9.2866630    0.467941348435
     10   S      36             3.1639270    0.362311985337

     11   L      37             7.8682723   -0.119332419775    0.068999066591
     11   L      38             1.8812885   -0.160854151696    0.316423960957
     11   L      39             0.5442493    1.143456437840    0.744308290898

     12   L      40             0.1687145    1.000000000000    1.000000000000

 C         

     13   S      41          3047.5248800    0.001834737132
     13   S      42           457.3695180    0.014037322813
     13   S      43           103.9486850    0.068842622264
     13   S      44            29.2101553    0.232184443216
     13   S      45             9.2866630    0.467941348435
     13   S      46             3.1639270    0.362311985337

     14   L      47             7.8682723   -0.119332419775    0.068999066591
     14   L      48             1.8812885   -0.160854151696    0.316423960957
     14   L      49             0.5442493    1.143456437840    0.744308290898

     15   L      50             0.1687145    1.000000000000    1.000000000000

 C         

     16   S      51          3047.5248800    0.001834737132
     16   S      52           457.3695180    0.014037322813
     16   S      53           103.9486850    0.068842622264
     16   S      54            29.2101553    0.232184443216
     16   S      55             9.2866630    0.467941348435
     16   S      56             3.1639270    0.362311985337

     17   L      57             7.8682723   -0.119332419775    0.068999066591
     17   L      58             1.8812885   -0.160854151696    0.316423960957
     17   L      59             0.5442493    1.143456437840    0.744308290898

     18   L      60             0.1687145    1.000000000000    1.000000000000

 C         

     19   S      61          3047.5248800    0.001834737132
     19   S      62           457.3695180    0.014037322813
     19   S      63           103.9486850    0.068842622264
     19   S      64            29.2101553    0.232184443216
     19   S      65             9.2866630    0.467941348435
     19   S      66             3.1639270    0.362311985337

     20   L      67             7.8682723   -0.119332419775    0.068999066591
     20   L      68             1.8812885   -0.160854151696    0.316423960957
     20   L      69             0.5442493    1.143456437840    0.744308290898

     21   L      70             0.1687145    1.000000000000    1.000000000000

 C         

     22   S      71          3047.5248800    0.001834737132
     22   S      72           457.3695180    0.014037322813
     22   S      73           103.9486850    0.068842622264
     22   S      74            29.2101553    0.232184443216
     22   S      75             9.2866630    0.467941348435
     22   S      76             3.1639270    0.362311985337

     23   L      77             7.8682723   -0.119332419775    0.068999066591
     23   L      78             1.8812885   -0.160854151696    0.316423960957
     23   L      79             0.5442493    1.143456437840    0.744308290898

     24   L      80             0.1687145    1.000000000000    1.000000000000

 C         

     25   S      81          3047.5248800    0.001834737132
     25   S      82           457.3695180    0.014037322813
     25   S      83           103.9486850    0.068842622264
     25   S      84            29.2101553    0.232184443216
     25   S      85             9.2866630    0.467941348435
     25   S      86             3.1639270    0.362311985337

     26   L      87             7.8682723   -0.119332419775    0.068999066591
     26   L      88             1.8812885   -0.160854151696    0.316423960957
     26   L      89             0.5442493    1.143456437840    0.744308290898

     27   L      90             0.1687145    1.000000000000    1.000000000000

 C         

     28   S      91          3047.5248800    0.001834737132
     28   S      92           457.3695180    0.014037322813
     28   S      93           103.9486850    0.068842622264
     28   S      94            29.2101553    0.232184443216
     28   S      95             9.2866630    0.467941348435
     28   S      96             3.1639270    0.362311985337

     29   L      97             7.8682723   -0.119332419775    0.068999066591
     29   L      98             1.8812885   -0.160854151696    0.316423960957
     29   L      99             0.5442493    1.143456437840    0.744308290898

     30   L     100             0.1687145    1.000000000000    1.000000000000

 C         

     31   S     101          3047.5248800    0.001834737132
     31   S     102           457.3695180    0.014037322813
     31   S     103           103.9486850    0.068842622264
     31   S     104            29.2101553    0.232184443216
     31   S     105             9.2866630    0.467941348435
     31   S     106             3.1639270    0.362311985337

     32   L     107             7.8682723   -0.119332419775    0.068999066591
     32   L     108             1.8812885   -0.160854151696    0.316423960957
     32   L     109             0.5442493    1.143456437840    0.744308290898

     33   L     110             0.1687145    1.000000000000    1.000000000000

 H         

     34   S     111            18.7311370    0.033494604338
     34   S     112             2.8253944    0.234726953484
     34   S     113             0.6401217    0.813757326146

     35   S     114             0.1612778    1.000000000000

 H         

     36   S     115            18.7311370    0.033494604338
     36   S     116             2.8253944    0.234726953484
     36   S     117             0.6401217    0.813757326146

     37   S     118             0.1612778    1.000000000000

 H         

     38   S     119            18.7311370    0.033494604338
     38   S     120             2.8253944    0.234726953484
     38   S     121             0.6401217    0.813757326146

     39   S     122             0.1612778    1.000000000000

 H         

     40   S     123            18.7311370    0.033494604338
     40   S     124             2.8253944    0.234726953484
     40   S     125             0.6401217    0.813757326146

     41   S     126             0.1612778    1.000000000000

 H         

     42   S     127            18.7311370    0.033494604338
     42   S     128             2.8253944    0.234726953484
     42   S     129             0.6401217    0.813757326146

     43   S     130             0.1612778    1.000000000000

 H         

     44   S     131            18.7311370    0.033494604338
     44   S     132             2.8253944    0.234726953484
     44   S     133             0.6401217    0.813757326146

     45   S     134             0.1612778    1.000000000000

 TOTAL NUMBER OF BASIS SET SHELLS             =   45
 NUMBER OF CARTESIAN GAUSSIAN BASIS FUNCTIONS =  111
 NUMBER OF ELECTRONS                          =   76
 CHARGE OF MOLECULE                           =    0
 SPIN MULTIPLICITY                            =    1
 NUMBER OF OCCUPIED ORBITALS (ALPHA)          =   38
 NUMBER OF OCCUPIED ORBITALS (BETA )          =   38
 TOTAL NUMBER OF ATOMS                        =   17
 THE NUCLEAR REPULSION ENERGY IS      551.3037800088

     $CONTRL OPTIONS
     ---------------
 SCFTYP=RHF          RUNTYP=OPTIMIZE     EXETYP=RUN     
 MPLEVL=       0     CITYP =NONE         CCTYP =NONE         VBTYP =NONE    
 DFTTYP=NONE         TDDFT =NONE    
 MULT  =       1     ICHARG=       0     NZVAR =       0     COORD =UNIQUE  
 PP    =NONE         RELWFN=NONE         LOCAL =NONE         NUMGRD=       F
 ISPHER=      -1     NOSYM =       0     MAXIT =      30     UNITS =ANGS    
 PLTORB=       F     MOLPLT=       F     AIMPAC=       F     FRIEND=        
 NPRINT=       7     IREST =       0     GEOM  =INPUT   
 NORMF =       0     NORMP =       0     ITOL  =      20     ICUT  =       9
 INTTYP=BEST         GRDTYP=BEST         QMTTOL= 1.0E-06

     $SYSTEM OPTIONS
     ---------------
  REPLICATED MEMORY=     1000000 WORDS (ON EVERY NODE).
 DISTRIBUTED MEMDDI=           0 MILLION WORDS IN AGGREGATE,
 MEMDDI DISTRIBUTED OVER   1 PROCESSORS IS           0 WORDS/PROCESSOR.
 TOTAL MEMORY REQUESTED ON EACH PROCESSOR=     1000000 WORDS.
 TIMLIM=      525600.00 MINUTES, OR     365.0 DAYS.
 PARALL= F  BALTYP=  DLB     KDIAG=    0  COREFL= F
 MXSEQ2=     300 MXSEQ3=     150  mem10=         0

          ----------------
          PROPERTIES INPUT
          ----------------

     MOMENTS            FIELD           POTENTIAL          DENSITY
 IEMOM =       1   IEFLD =       0   IEPOT =       0   IEDEN =       0
 WHERE =COMASS     WHERE =NUCLEI     WHERE =NUCLEI     WHERE =NUCLEI  
 OUTPUT=BOTH       OUTPUT=BOTH       OUTPUT=BOTH       OUTPUT=BOTH    
 IEMINT=       0   IEFINT=       0                     IEDINT=       0
                                                       MORB  =       0
          EXTRAPOLATION IN EFFECT
          SOSCF IN EFFECT
 ORBITAL PRINTING OPTION: NPREO=     1   111     2     1

     -------------------------------
     INTEGRAL TRANSFORMATION OPTIONS
     -------------------------------
     NWORD  =            0
     CUTOFF = 1.0E-09     MPTRAN =       0
     DIRTRF =       F     AOINTS =DUP     

          ----------------------
          INTEGRAL INPUT OPTIONS
          ----------------------
 NOPK  =       1 NORDER=       0 SCHWRZ=       T

     ------------------------------------------
     THE POINT GROUP IS C1 , NAXIS= 0, ORDER= 1
     ------------------------------------------

     DIMENSIONS OF THE SYMMETRY SUBSPACES ARE
 A   =  111

 ..... DONE SETTING UP THE RUN .....
 STEP CPU TIME =     0.18 TOTAL CPU TIME =        0.2 (    0.0 MIN)
 TOTAL WALL CLOCK TIME=        0.8 SECONDS, CPU UTILIZATION IS  25.33%


          -----------------------------
          STATIONARY POINT LOCATION RUN
          -----------------------------

 OBTAINING INITIAL HESSIAN, HESS=GUESS   
 CARTESIAN COORDINATE OPTIMIZATION USING BADGER'S RULE FORCE CONSTANT GUESS

          PARAMETERS CONTROLLING GEOMETRY SEARCH ARE
          METHOD =QA                  UPHESS =BFGS    
          NNEG   =         0          NFRZ   =         0
          NSTEP  =       100          IFOLOW =         1
          HESS   =GUESS               RESTAR =         F
          IHREP  =         0          HSSEND =         F
          NPRT   =         0          NPUN   =         0
          OPTTOL = 5.000E-04          RMIN   = 1.500E-03
          RMAX   = 1.000E-01          RLIM   = 7.000E-02
          DXMAX  = 3.000E-01          PURIFY =         F
          MOVIE  =         F          TRUPD  =         T
          TRMAX  = 5.000E-01          TRMIN  = 5.000E-02
          ITBMAT =         5          STPT   =         F
          STSTEP = 1.000E-02          PROJCT=          T

 BEGINNING GEOMETRY SEARCH POINT NSERCH=   0 ...

 COORDINATES OF ALL ATOMS ARE (ANGS)
   ATOM   CHARGE       X              Y              Z
 ------------------------------------------------------------
 O           8.0  -3.2206031089   0.5572504837   0.0931853926
 C           6.0  -2.0664115132   0.1620713991  -0.0088960284
 O           8.0  -0.9878643483   1.0309554435  -0.0828884231
 C           6.0  -1.7664349694  -1.2801016798  -0.0735996679
 C           6.0   0.3328646724   0.5453947836  -0.0560551875
 C           6.0  -0.5168322451  -1.7540948257  -0.0535959108
 C           6.0   0.5979984311  -0.8220442841  -0.0032603940
 C           6.0   1.3546094599   1.4908801315  -0.0626874072
 C           6.0   1.9254875944  -1.2479339974   0.0737218575
 C           6.0   2.6765363648   1.0588744970   0.0089690010
 C           6.0   2.9613195980  -0.3069013500   0.0864160717
 H           1.0  -2.6266198544  -1.9359976987  -0.1258496257
 H           1.0  -0.3182317854  -2.8194327445  -0.0897489125
 H           1.0   1.1204458193   2.5497566746  -0.1181836898
 H           1.0   2.1696962979  -2.3061821073   0.1250811288
 H           1.0   3.4847369920   1.7859471997   0.0091257800
 H           1.0   3.9948205331  -0.6391200868   0.1528905705

          ********************
          1 ELECTRON INTEGRALS
          ********************
 ...... END OF ONE-ELECTRON INTEGRALS ......
 STEP CPU TIME =     0.02 TOTAL CPU TIME =        0.2 (    0.0 MIN)
 TOTAL WALL CLOCK TIME=        0.8 SECONDS, CPU UTILIZATION IS  25.93%

          -------------
          GUESS OPTIONS
          -------------
          GUESS =HUCKEL            NORB  =       0          NORDER=       0
          MIX   =       F          PRTMO =       F          PUNMO =       F
          TOLZ  = 1.0E-08          TOLE  = 1.0E-05
          SYMDEN=       F          PURIFY=       F

 INITIAL GUESS ORBITALS GENERATED BY HUCKEL   ROUTINE.
 HUCKEL GUESS REQUIRES    116939 WORDS.

 SYMMETRIES FOR INITIAL GUESS ORBITALS FOLLOW.   BOTH SET(S).
    38 ORBITALS ARE OCCUPIED (   11 CORE ORBITALS).
    12=A       13=A       14=A       15=A       16=A       17=A       18=A   
    19=A       20=A       21=A       22=A       23=A       24=A       25=A   
    26=A       27=A       28=A       29=A       30=A       31=A       32=A   
    33=A       34=A       35=A       36=A       37=A       38=A       39=A   
    40=A       41=A       42=A       43=A       44=A       45=A       46=A   
    47=A       48=A   
 ...... END OF INITIAL ORBITAL SELECTION ......
 STEP CPU TIME =     0.04 TOTAL CPU TIME =        0.2 (    0.0 MIN)
 TOTAL WALL CLOCK TIME=        1.0 SECONDS, CPU UTILIZATION IS  24.51%

                    ----------------------
                    AO INTEGRAL TECHNOLOGY
                    ----------------------
     S,P,L SHELL ROTATED AXIS INTEGRALS, REPROGRAMMED BY
        KAZUYA ISHIMURA (IMS) AND JOSE SIERRA (SYNSTAR).
     S,P,D,L SHELL ROTATED AXIS INTEGRALS PROGRAMMED BY
        KAZUYA ISHIMURA (INSTITUTE FOR MOLECULAR SCIENCE).
     S,P,D,F,G SHELL TO TOTAL QUARTET ANGULAR MOMENTUM SUM 5,
        ERIC PROGRAM BY GRAHAM FLETCHER (ELORET AND NASA ADVANCED
        SUPERCOMPUTING DIVISION, AMES RESEARCH CENTER).
     S,P,D,F,G,L SHELL GENERAL RYS QUADRATURE PROGRAMMED BY
        MICHEL DUPUIS (PACIFIC NORTHWEST NATIONAL LABORATORY).

          --------------------
          2 ELECTRON INTEGRALS
          --------------------

 THE -PK- OPTION IS OFF, THE INTEGRALS ARE NOT IN SUPERMATRIX FORM.
 STORING   15000 INTEGRALS/RECORD ON DISK, USING 12 BYTES/INTEGRAL.
 TWO ELECTRON INTEGRAL EVALUATION REQUIRES   90391 WORDS OF MEMORY.
 SCHWARZ INEQUALITY OVERHEAD:      6021 INTEGRALS, T=        0.01
 II,JST,KST,LST =  1  1  1  1 NREC =         1 INTLOC =    1
 II,JST,KST,LST =  2  1  1  1 NREC =         1 INTLOC =    2
 II,JST,KST,LST =  3  1  1  1 NREC =         1 INTLOC =   34
 II,JST,KST,LST =  4  1  1  1 NREC =         1 INTLOC =  214
 II,JST,KST,LST =  5  1  1  1 NREC =         1 INTLOC =  718
 II,JST,KST,LST =  6  1  1  1 NREC =         1 INTLOC = 4656
 II,JST,KST,LST =  7  1  1  1 NREC =         1 INTLOC =13062
 II,JST,KST,LST =  8  1  1  1 NREC =         2 INTLOC =  795
 II,JST,KST,LST =  9  1  1  1 NREC =         3 INTLOC = 4775
 II,JST,KST,LST = 10  1  1  1 NREC =         5 INTLOC = 6819
 II,JST,KST,LST = 11  1  1  1 NREC =         5 INTLOC =14805
 II,JST,KST,LST = 12  1  1  1 NREC =         9 INTLOC = 9213
 II,JST,KST,LST = 13  1  1  1 NREC =        14 INTLOC =14025
 II,JST,KST,LST = 14  1  1  1 NREC =        16 INTLOC = 1236
 II,JST,KST,LST = 15  1  1  1 NREC =        23 INTLOC = 1439
 II,JST,KST,LST = 16  1  1  1 NREC =        33 INTLOC = 7072
 II,JST,KST,LST = 17  1  1  1 NREC =        35 INTLOC = 8251
 II,JST,KST,LST = 18  1  1  1 NREC =        48 INTLOC = 7676
 II,JST,KST,LST = 19  1  1  1 NREC =        66 INTLOC =10417
 II,JST,KST,LST = 20  1  1  1 NREC =        70 INTLOC = 4271
 II,JST,KST,LST = 21  1  1  1 NREC =        91 INTLOC = 6040
 II,JST,KST,LST = 22  1  1  1 NREC =       120 INTLOC = 5740
 II,JST,KST,LST = 23  1  1  1 NREC =       124 INTLOC = 5597
 II,JST,KST,LST = 24  1  1  1 NREC =       151 INTLOC = 5499
 II,JST,KST,LST = 25  1  1  1 NREC =       192 INTLOC = 5606
 II,JST,KST,LST = 26  1  1  1 NREC =       198 INTLOC = 8221
 II,JST,KST,LST = 27  1  1  1 NREC =       235 INTLOC = 4650
 II,JST,KST,LST = 28  1  1  1 NREC =       291 INTLOC =  634
 II,JST,KST,LST = 29  1  1  1 NREC =       298 INTLOC = 2918
 II,JST,KST,LST = 30  1  1  1 NREC =       341 INTLOC = 8237
 II,JST,KST,LST = 31  1  1  1 NREC =       411 INTLOC = 6946
 II,JST,KST,LST = 32  1  1  1 NREC =       422 INTLOC =  704
 II,JST,KST,LST = 33  1  1  1 NREC =       484 INTLOC =  600
 II,JST,KST,LST = 34  1  1  1 NREC =       576 INTLOC = 2778
 II,JST,KST,LST = 35  1  1  1 NREC =       592 INTLOC =10708
 II,JST,KST,LST = 36  1  1  1 NREC =       618 INTLOC =  435
 II,JST,KST,LST = 37  1  1  1 NREC =       637 INTLOC = 4086
 II,JST,KST,LST = 38  1  1  1 NREC =       666 INTLOC = 4064
 II,JST,KST,LST = 39  1  1  1 NREC =       686 INTLOC = 5297
 II,JST,KST,LST = 40  1  1  1 NREC =       716 INTLOC = 9541
 II,JST,KST,LST = 41  1  1  1 NREC =       737 INTLOC = 6315
 II,JST,KST,LST = 42  1  1  1 NREC =       768 INTLOC = 2447
 II,JST,KST,LST = 43  1  1  1 NREC =       785 INTLOC = 7560
 II,JST,KST,LST = 44  1  1  1 NREC =       813 INTLOC = 3197
 II,JST,KST,LST = 45  1  1  1 NREC =       831 INTLOC =12873
 SCHWARZ INEQUALITY TEST SKIPPED      218514 INTEGRAL BLOCKS.
 TOTAL NUMBER OF NONZERO TWO-ELECTRON INTEGRALS =            12901680
        861 INTEGRAL RECORDS WERE STORED ON DISK FILE  8.
  ...... END OF TWO-ELECTRON INTEGRALS .....
 STEP CPU TIME =     1.14 TOTAL CPU TIME =        1.4 (    0.0 MIN)
 TOTAL WALL CLOCK TIME=        2.2 SECONDS, CPU UTILIZATION IS  62.90%

          --------------------------
                 RHF SCF CALCULATION
          --------------------------

     NUCLEAR ENERGY =       551.3037800088
     MAXIT =   30     NPUNCH=    2
     EXTRAP=T  DAMP=F  SHIFT=F  RSTRCT=F  DIIS=F  DEM=F  SOSCF=T
     DENSITY MATRIX CONV=  1.00E-05
     SOSCF WILL OPTIMIZE    2774 ORBITAL ROTATIONS, SOGTOL=   0.250
     MEMORY REQUIRED FOR RHF ITERS=    128897 WORDS.

 ITER EX DEM     TOTAL ENERGY        E CHANGE  DENSITY CHANGE     ORB. GRAD
   1  0  0     -492.7301106936  -492.7301106936   0.529655742   0.000000000
          ---------------START SECOND ORDER SCF---------------
   2  1  0     -493.6621114014    -0.9320007078   0.285653858   0.077966858
   3  2  0     -493.6875515302    -0.0254401289   0.147753925   0.092993790
   4  3  0     -493.8288835986    -0.1413320684   0.046500798   0.014634011
   5  4  0     -493.8328082018    -0.0039246032   0.006763858   0.004761422
   6  5  0     -493.8332324876    -0.0004242858   0.005546805   0.001024171
   7  6  0     -493.8332777393    -0.0000452517   0.002252844   0.000666469
   8  7  0     -493.8332871358    -0.0000093965   0.000614588   0.000197072
   9  8  0     -493.8332883330    -0.0000011972   0.000196357   0.000053355
  10  9  0     -493.8332884963    -0.0000001633   0.000081931   0.000031475
  11 10  0     -493.8332885255    -0.0000000292   0.000026921   0.000007845
  12 11  0     -493.8332885305    -0.0000000050   0.000010291   0.000003753
  13 12  0     -493.8332885312    -0.0000000007   0.000004077   0.000002005
  14 13  0     -493.8332885313    -0.0000000001   0.000001675   0.000000543

          -----------------
          DENSITY CONVERGED
          -----------------
     TIME TO FORM FOCK OPERATORS=       1.9 SECONDS (       0.1 SEC/ITER)
     TIME TO SOLVE SCF EQUATIONS=       0.0 SECONDS (       0.0 SEC/ITER)

 FINAL RHF ENERGY IS     -493.8332885313 AFTER  14 ITERATIONS

          ------------
          EIGENVECTORS
          ------------

                      1          2          3          4          5
                  -20.6402   -20.5598   -11.4151   -11.3451   -11.2959
                     A          A          A          A          A   
    1  O  1  S   -0.000315   0.995903  -0.000332  -0.000027  -0.000006
    2  O  1  S   -0.000414   0.023466   0.000600  -0.000373  -0.000088
    3  O  1  X   -0.000011   0.002285   0.000357   0.000047   0.000010
    4  O  1  Y    0.000019  -0.000746  -0.000098  -0.000018   0.000030
    5  O  1  Z   -0.000003  -0.000216  -0.000039   0.000003   0.000007
    6  O  1  S    0.002419  -0.016202  -0.002104   0.002315   0.000273
    7  O  1  X    0.000236  -0.004857  -0.001537   0.000578   0.000081
    8  O  1  Y   -0.000692   0.001781  -0.000255   0.000132  -0.000334
    9  O  1  Z   -0.000033   0.000483   0.000154  -0.000097  -0.000043
   10  C  2  S    0.000019   0.000185   0.996251   0.000195  -0.000055
   11  C  2  S    0.000072   0.000619   0.024496  -0.000697  -0.000046
   12  C  2  X    0.000423   0.000180   0.000358  -0.000033  -0.000026
   13  C  2  Y    0.000165   0.000007   0.000766  -0.000020   0.000140
   14  C  2  Z   -0.000021   0.000001  -0.000004  -0.000009  -0.000003
   15  C  2  S    0.004264   0.006022  -0.010844   0.001938  -0.002251
   16  C  2  X    0.005716  -0.009470  -0.002966   0.002761  -0.000512
   17  C  2  Y    0.000844   0.002073   0.004917  -0.002972   0.001017
   18  C  2  Z   -0.000383   0.000673   0.000286  -0.000142   0.000066
   19  O  3  S    0.995907   0.000289  -0.000073  -0.000031   0.000004
   20  O  3  S    0.024131  -0.000310   0.000475   0.000882   0.000016
   21  O  3  X    0.000351   0.000039  -0.000294   0.000315  -0.000013
   22  O  3  Y   -0.002101   0.000094  -0.000186  -0.000115   0.000036
   23  O  3  Z    0.000117  -0.000004   0.000029  -0.000011  -0.000001
   24  O  3  S   -0.017676   0.001416  -0.001295  -0.003713  -0.000174
   25  O  3  X   -0.001141   0.000118   0.001657  -0.002589  -0.000084
   26  O  3  Y    0.004632  -0.000956   0.001165   0.000968  -0.000152
   27  O  3  Z   -0.000221  -0.000028  -0.000191   0.000049   0.000015
   28  C  4  S    0.000060  -0.000015   0.002436  -0.000043   0.031466
   29  C  4  S    0.000363  -0.000189  -0.000635   0.000223  -0.000352
   30  C  4  X    0.000057  -0.000017   0.000000   0.000002  -0.000205
   31  C  4  Y   -0.000088  -0.000039  -0.000072  -0.000063   0.000009
   32  C  4  Z   -0.000005  -0.000013  -0.000008   0.000007  -0.000005
   33  C  4  S   -0.005206   0.002113   0.005066  -0.003724   0.009245
   34  C  4  X   -0.004806   0.003803  -0.000689  -0.001360   0.004246
   35  C  4  Y   -0.001474   0.000635   0.003761  -0.002465   0.001184
   36  C  4  Z   -0.000039  -0.000032   0.000148  -0.000170   0.000159
   37  C  5  S    0.000065  -0.000021  -0.000293   0.996193  -0.000241
   38  C  5  S    0.000660  -0.000308  -0.000440   0.025434  -0.000003
   39  C  5  X   -0.000175   0.000325   0.000486  -0.000917   0.000081
   40  C  5  Y    0.000077   0.000060   0.000202   0.000006   0.000130
   41  C  5  Z    0.000010   0.000010  -0.000019   0.000001   0.000011
   42  C  5  S    0.000522  -0.001006  -0.000281  -0.022494  -0.003042
   43  C  5  X   -0.009795  -0.002423  -0.005463  -0.009007  -0.001213
   44  C  5  Y   -0.000680  -0.001564  -0.006808   0.005550   0.001029
   45  C  5  Z   -0.000211   0.000030   0.000260  -0.000499  -0.000119
   46  C  6  S   -0.000045  -0.000011  -0.000037  -0.000087   0.995222
   47  C  6  S   -0.000258  -0.000150  -0.000171  -0.000305   0.025290
   48  C  6  X    0.000044   0.000157   0.000239  -0.000019  -0.000088
   49  C  6  Y    0.000106  -0.000089  -0.000002   0.000012   0.000513
   50  C  6  Z    0.000005   0.000005  -0.000008   0.000006   0.000010
   51  C  6  S    0.009081  -0.002239   0.001602   0.006230  -0.020390
   52  C  6  X   -0.000545   0.000919  -0.001268   0.001905   0.001176
   53  C  6  Y    0.003965  -0.000189   0.000982   0.002703  -0.005196
   54  C  6  Z    0.000063   0.000077   0.000022   0.000168  -0.000079
   55  C  7  S    0.000029  -0.000005  -0.000018   0.009165   0.030679
   56  C  7  S    0.000155  -0.000070   0.000110  -0.000811  -0.000198
   57  C  7  X   -0.000187   0.000083  -0.000047  -0.000176   0.000190
   58  C  7  Y   -0.000091  -0.000063  -0.000011  -0.000303   0.000109
   59  C  7  Z    0.000001   0.000001  -0.000011   0.000004   0.000007
   60  C  7  S   -0.000498  -0.000549  -0.002515   0.011237   0.008560
   61  C  7  X    0.008516   0.000318   0.004586   0.006650  -0.003258
   62  C  7  Y    0.001488   0.000121  -0.003172   0.009098  -0.000103
   63  C  7  Z    0.000296   0.000009   0.000235   0.000048  -0.000156
   64  C  8  S   -0.000035  -0.000022  -0.000051   0.007255  -0.000010
   65  C  8  S   -0.000274  -0.000159  -0.000358  -0.000886  -0.000180
   66  C  8  X   -0.000111  -0.000027  -0.000206   0.000044  -0.000041
   67  C  8  Y   -0.000054  -0.000005  -0.000025   0.000112  -0.000005
   68  C  8  Z   -0.000007  -0.000002   0.000002  -0.000006  -0.000006
   69  C  8  S    0.006498   0.002432   0.007563   0.010675   0.001857
   70  C  8  X    0.000921  -0.000796  -0.001797   0.001226   0.000459
   71  C  8  Y   -0.004133  -0.001376  -0.003375  -0.006624  -0.001451
   72  C  8  Z    0.000210   0.000021   0.000012   0.000350   0.000108
   73  C  9  S    0.000017  -0.000007   0.000006   0.000062   0.000611
   74  C  9  S    0.000027  -0.000079   0.000028   0.000237   0.000014
   75  C  9  X    0.000186   0.000005   0.000054   0.000194   0.000056
   76  C  9  Y   -0.000074  -0.000028  -0.000048  -0.000039   0.000044
   77  C  9  Z    0.000011   0.000005   0.000012   0.000004  -0.000007
   78  C  9  S   -0.005875   0.000098  -0.003495  -0.007290  -0.000577
   79  C  9  X    0.001373   0.000013   0.001744   0.000603  -0.000075
   80  C  9  Y   -0.002308   0.000128  -0.000389  -0.004965  -0.000847
   81  C  9  Z    0.000168  -0.000013   0.000100   0.000224   0.000048
   82  C 10  S    0.000017   0.000002   0.000037   0.000049   0.000002
   83  C 10  S    0.000081   0.000006   0.000226   0.000171   0.000027
   84  C 10  X    0.000123   0.000040   0.000036   0.000169   0.000039
   85  C 10  Y   -0.000023  -0.000029  -0.000055  -0.000046   0.000015
   86  C 10  Z    0.000008   0.000004   0.000004   0.000006   0.000001
   87  C 10  S   -0.003928  -0.000511  -0.002755  -0.006588  -0.001674
   88  C 10  X    0.001534   0.000118   0.001090   0.002934   0.000692
   89  C 10  Y    0.000991   0.000577   0.001854   0.001720   0.000461
   90  C 10  Z    0.000017  -0.000022  -0.000019   0.000047   0.000002
   91  C 11  S   -0.000024  -0.000004  -0.000026  -0.000196   0.000006
   92  C 11  S   -0.000197  -0.000036  -0.000163  -0.000370  -0.000150
   93  C 11  X    0.000033   0.000016   0.000045   0.000025   0.000003
   94  C 11  Y   -0.000038   0.000019   0.000031  -0.000066  -0.000008
   95  C 11  Z    0.000004   0.000000   0.000003   0.000001   0.000001
   96  C 11  S    0.002826   0.000412   0.001845   0.005727   0.001466
   97  C 11  X   -0.001749  -0.000104  -0.001101  -0.003413  -0.001094
   98  C 11  Y    0.000602   0.000262   0.001196   0.000607   0.000288
   99  C 11  Z   -0.000119  -0.000015  -0.000117  -0.000195  -0.000072
  100  H 12  S   -0.000313   0.000276  -0.000096  -0.000123  -0.000037
  101  H 12  S   -0.001260   0.001200   0.000406  -0.000611   0.000853
  102  H 13  S    0.000014   0.000043   0.000057   0.000008  -0.000361
  103  H 13  S    0.000832   0.000138   0.000549   0.000521   0.001089
  104  H 14  S    0.000214  -0.000004   0.000008   0.000192   0.000074
  105  H 14  S    0.001133   0.000352   0.000612   0.001745   0.000462
  106  H 15  S   -0.000040   0.000013   0.000057  -0.000168  -0.000056
  107  H 15  S   -0.000474   0.000033   0.000000  -0.001261  -0.000358
  108  H 16  S   -0.000022  -0.000033  -0.000094  -0.000040  -0.000014
  109  H 16  S   -0.000256  -0.000097  -0.000502  -0.000554  -0.000129
  110  H 17  S    0.000060  -0.000004   0.000064   0.000102   0.000051
  111  H 17  S    0.000459   0.000056   0.000384   0.000833   0.000362

                      6          7          8          9         10
                  -11.2827   -11.2765   -11.2721   -11.2704   -11.2662
                     A          A          A          A          A   
    1  O  1  S   -0.000004  -0.000002   0.000001   0.000003  -0.000003
    2  O  1  S   -0.000065  -0.000031   0.000004  -0.000059  -0.000045
    3  O  1  X   -0.000004  -0.000003  -0.000007  -0.000013   0.000005
    4  O  1  Y   -0.000012   0.000005  -0.000002  -0.000022  -0.000005
    5  O  1  Z    0.000002   0.000002   0.000000  -0.000010  -0.000001
    6  O  1  S    0.000387   0.000094  -0.000048   0.000087   0.000293
    7  O  1  X    0.000098   0.000044  -0.000014  -0.000068   0.000056
    8  O  1  Y    0.000066  -0.000047   0.000005   0.000350  -0.000004
    9  O  1  Z   -0.000014  -0.000009   0.000004   0.000035  -0.000005
   10  C  2  S    0.000039  -0.000000  -0.000007  -0.002695  -0.000025
   11  C  2  S   -0.000074  -0.000071   0.000086  -0.000813  -0.000107
   12  C  2  X    0.000014  -0.000039   0.000043   0.000046   0.000024
   13  C  2  Y    0.000030  -0.000004   0.000034   0.000196   0.000003
   14  C  2  Z   -0.000012   0.000004  -0.000006   0.000006   0.000002
   15  C  2  S    0.000908  -0.000458   0.000312   0.007412   0.000449
   16  C  2  X    0.000684  -0.000088   0.000082   0.001915   0.000498
   17  C  2  Y   -0.000622   0.000141   0.000051  -0.003059  -0.000259
   18  C  2  Z   -0.000047   0.000007  -0.000012  -0.000177  -0.000037
   19  O  3  S    0.000012  -0.000007  -0.000001   0.000017   0.000005
   20  O  3  S    0.000064  -0.000084  -0.000021   0.000111  -0.000049
   21  O  3  X   -0.000024   0.000003  -0.000051   0.000021  -0.000014
   22  O  3  Y   -0.000017   0.000025  -0.000033   0.000015  -0.000014
   23  O  3  Z   -0.000005  -0.000001   0.000002   0.000009  -0.000003
   24  O  3  S   -0.000590   0.000111  -0.000161  -0.001304   0.000160
   25  O  3  X   -0.000127   0.000024   0.000400   0.000213  -0.000072
   26  O  3  Y    0.000609  -0.000319   0.000314   0.000683   0.000019
   27  O  3  Z   -0.000005   0.000018  -0.000010  -0.000050  -0.000003
   28  C  4  S   -0.002569   0.000374   0.000489   0.995675   0.000040
   29  C  4  S    0.000001  -0.000104   0.000046   0.025544  -0.000028
   30  C  4  X   -0.000081   0.000025  -0.000019   0.000557  -0.000028
   31  C  4  Y    0.000047  -0.000017   0.000027   0.000528  -0.000017
   32  C  4  Z   -0.000011   0.000001  -0.000001   0.000044  -0.000002
   33  C  4  S   -0.002609   0.001199  -0.000652  -0.021349  -0.000750
   34  C  4  X   -0.001083   0.000701  -0.000376  -0.004557  -0.000214
   35  C  4  Y   -0.000723   0.000361  -0.000196  -0.003471  -0.000123
   36  C  4  Z   -0.000008   0.000030  -0.000008  -0.000283  -0.000010
   37  C  5  S   -0.009577   0.000911  -0.000785   0.000071  -0.007708
   38  C  5  S   -0.001225   0.000203  -0.000073   0.000036  -0.001349
   39  C  5  X   -0.000103  -0.000038  -0.000083   0.000034  -0.000255
   40  C  5  Y    0.000301   0.000050  -0.000048   0.000105  -0.000183
   41  C  5  Z   -0.000012  -0.000004  -0.000002   0.000010   0.000001
   42  C  5  S    0.009312  -0.005177  -0.002995  -0.000513   0.011562
   43  C  5  X    0.000908  -0.001612  -0.001972  -0.001316   0.005040
   44  C  5  Y   -0.004689   0.001930  -0.001055  -0.001498   0.000827
   45  C  5  Z    0.000167  -0.000127  -0.000027  -0.000021   0.000119
   46  C  6  S   -0.030844   0.002288  -0.000071  -0.032177  -0.000055
   47  C  6  S   -0.001644   0.000125  -0.000074  -0.002067  -0.000128
   48  C  6  X   -0.000131  -0.000035   0.000046   0.000256   0.000001
   49  C  6  Y   -0.000178   0.000059   0.000020  -0.000185   0.000000
   50  C  6  Z   -0.000002   0.000004   0.000000   0.000001  -0.000004
   51  C  6  S    0.006842  -0.000208   0.001839   0.011675   0.000292
   52  C  6  X    0.000835   0.000601   0.000082  -0.002305  -0.000351
   53  C  6  Y    0.003048  -0.000612   0.000951   0.004715   0.000637
   54  C  6  Z    0.000034  -0.000003   0.000029   0.000085   0.000000
   55  C  7  S    0.991270  -0.093484   0.001580   0.001654   0.000461
   56  C  7  S    0.025638  -0.003559  -0.000114   0.000184   0.000136
   57  C  7  X   -0.000202  -0.000289  -0.000115   0.000086  -0.000032
   58  C  7  Y    0.000308  -0.000015  -0.000075  -0.000009  -0.000082
   59  C  7  Z   -0.000039  -0.000015  -0.000002   0.000008   0.000008
   60  C  7  S   -0.022982   0.012736   0.001324  -0.004295  -0.004077
   61  C  7  X    0.001306   0.004623   0.002902   0.002239  -0.000826
   62  C  7  Y   -0.002859   0.002344   0.000737   0.001083  -0.001958
   63  C  7  Z    0.000217   0.000164   0.000114   0.000076   0.000002
   64  C  8  S   -0.000772  -0.000774   0.100294  -0.000103   0.990787
   65  C  8  S    0.000025  -0.000270   0.001416  -0.000075   0.025484
   66  C  8  X    0.000067  -0.000019  -0.000226  -0.000027   0.000020
   67  C  8  Y    0.000040   0.000063   0.000044  -0.000024  -0.000689
   68  C  8  Z    0.000005  -0.000003  -0.000011  -0.000004   0.000025
   69  C  8  S   -0.001473   0.002910   0.008457   0.001739  -0.023212
   70  C  8  X   -0.001062   0.000925   0.001965  -0.000578  -0.001184
   71  C  8  Y    0.001246  -0.002004  -0.003659  -0.000557   0.006679
   72  C  8  Z   -0.000095   0.000128   0.000249   0.000031  -0.000353
   73  C  9  S    0.093062   0.990726  -0.008223  -0.000172   0.002833
   74  C  9  S    0.001410   0.025244  -0.000176  -0.000054  -0.000131
   75  C  9  X    0.000202  -0.000242  -0.000103   0.000018   0.000049
   76  C  9  Y   -0.000084   0.000404  -0.000112   0.000016  -0.000038
   77  C  9  Z    0.000012  -0.000025   0.000002   0.000004   0.000004
   78  C  9  S    0.004566  -0.022002  -0.003847  -0.000446   0.002589
   79  C  9  X   -0.001791   0.001716   0.000863  -0.000796  -0.000181
   80  C  9  Y    0.001961  -0.005872  -0.001998  -0.000871   0.001901
   81  C  9  Z   -0.000172   0.000292   0.000106  -0.000028  -0.000074
   82  C 10  S   -0.000956   0.005014   0.988371  -0.000475  -0.098565
   83  C 10  S   -0.000215   0.000209   0.024951   0.000032  -0.003595
   84  C 10  X    0.000025  -0.000045  -0.000358  -0.000009   0.000254
   85  C 10  Y    0.000036   0.000151  -0.000274  -0.000023   0.000041
   86  C 10  Z    0.000003  -0.000008   0.000003   0.000002   0.000008
   87  C 10  S    0.002253  -0.004219  -0.020036  -0.000148   0.011743
   88  C 10  X   -0.001128   0.001797   0.003785   0.000287  -0.005148
   89  C 10  Y   -0.000635   0.001408   0.003706   0.000292  -0.002202
   90  C 10  Z   -0.000023   0.000002  -0.000033  -0.000015  -0.000102
   91  C 11  S    0.002584   0.046840   0.072744  -0.000081  -0.032758
   92  C 11  S    0.000059   0.000082   0.000757  -0.000013  -0.000625
   93  C 11  X    0.000062   0.000166   0.000065  -0.000025   0.000019
   94  C 11  Y    0.000076   0.000072  -0.000199   0.000005  -0.000144
   95  C 11  Z    0.000002   0.000005   0.000011  -0.000004   0.000008
   96  C 11  S   -0.001807   0.008997   0.008046   0.001027  -0.004392
   97  C 11  X    0.001148  -0.004981  -0.003351  -0.000291   0.002250
   98  C 11  Y   -0.000390  -0.000269   0.003175  -0.000331  -0.001022
   99  C 11  Z    0.000072  -0.000232  -0.000300   0.000015   0.000154
  100  H 12  S    0.000002   0.000024  -0.000016  -0.000346   0.000003
  101  H 12  S   -0.000148   0.000248  -0.000089   0.000968   0.000009
  102  H 13  S   -0.000048  -0.000059   0.000026   0.000017   0.000045
  103  H 13  S    0.000385  -0.000318   0.000215   0.000889   0.000262
  104  H 14  S   -0.000054   0.000091  -0.000067  -0.000026  -0.000366
  105  H 14  S   -0.000290   0.000584   0.000962   0.000008   0.000716
  106  H 15  S   -0.000090  -0.000378  -0.000036  -0.000090   0.000075
  107  H 15  S    0.000535   0.000921  -0.000371  -0.000185   0.000499
  108  H 16  S    0.000034  -0.000037  -0.000385  -0.000037   0.000061
  109  H 16  S    0.000326  -0.000361   0.001058  -0.000129   0.000893
  110  H 17  S   -0.000032   0.000007  -0.000017  -0.000030  -0.000013
  111  H 17  S   -0.000200   0.001075   0.001031  -0.000022  -0.000459

                     11         12         13         14         15
                  -11.2643    -1.4781    -1.3841    -1.1955    -1.1313
                     A          A          A          A          A   
    1  O  1  S   -0.000001  -0.083413  -0.176266  -0.010422   0.024891
    2  O  1  S   -0.000016   0.182827   0.381031   0.021932  -0.057601
    3  O  1  X    0.000004   0.075251   0.125173   0.000190  -0.008437
    4  O  1  Y    0.000004  -0.019578  -0.051693  -0.009218  -0.010219
    5  O  1  Z    0.000000  -0.006428  -0.011166  -0.000045   0.000593
    6  O  1  S    0.000082   0.178155   0.431874   0.032244  -0.050200
    7  O  1  X    0.000001   0.035658   0.062586   0.001670   0.000888
    8  O  1  Y   -0.000030  -0.006339  -0.028999  -0.006583  -0.000801
    9  O  1  Z   -0.000004  -0.003235  -0.006165  -0.000161  -0.000216
   10  C  2  S   -0.000001  -0.101563  -0.071593   0.005930  -0.031370
   11  C  2  S   -0.000097   0.211251   0.150276  -0.012941   0.067700
   12  C  2  X   -0.000025   0.003169  -0.213249  -0.033480   0.053303
   13  C  2  Y   -0.000025   0.069379   0.024059  -0.040573  -0.084629
   14  C  2  Z    0.000003   0.001476   0.017169   0.002538  -0.005527
   15  C  2  S    0.000302  -0.011259   0.016436   0.000437   0.037279
   16  C  2  X    0.000193  -0.007162   0.103480   0.018831   0.016357
   17  C  2  Y   -0.000040  -0.021959  -0.012869   0.011138  -0.022077
   18  C  2  Z   -0.000007  -0.000018  -0.007126  -0.001274  -0.001302
   19  O  3  S   -0.000006  -0.175693   0.100568   0.044464   0.021368
   20  O  3  S   -0.000095   0.368619  -0.211307  -0.097949  -0.047694
   21  O  3  X    0.000003  -0.005762  -0.043463   0.040998  -0.028994
   22  O  3  Y    0.000005  -0.084299   0.040945   0.006907  -0.031703
   23  O  3  Z    0.000001   0.006401  -0.001261  -0.001038  -0.000417
   24  O  3  S    0.000680   0.480938  -0.293308  -0.129014  -0.065023
   25  O  3  X    0.000155   0.015513  -0.026103   0.028496  -0.020297
   26  O  3  Y   -0.000142  -0.079340   0.045320   0.015215  -0.006965
   27  O  3  Z   -0.000005   0.005254  -0.001362  -0.001274  -0.000020
   28  C  4  S    0.000031  -0.020059  -0.008890  -0.033628  -0.118365
   29  C  4  S    0.000003   0.035188   0.020609   0.065745   0.233235
   30  C  4  X    0.000029   0.001163  -0.014823   0.033974   0.085765
   31  C  4  Y   -0.000010   0.025428   0.012348  -0.007505  -0.000689
   32  C  4  Z    0.000003   0.001057   0.001206   0.000940   0.002669
   33  C  4  S    0.000725   0.054003  -0.024751   0.038953   0.163576
   34  C  4  X    0.000223   0.029592  -0.046409  -0.011008   0.015362
   35  C  4  Y   -0.000330   0.017981   0.001337   0.003910   0.002435
   36  C  4  Z   -0.000017   0.001084   0.001299   0.000771   0.000395
   37  C  5  S   -0.000088  -0.055040   0.046073  -0.079015   0.026408
   38  C  5  S   -0.000326   0.108396  -0.088096   0.161988  -0.054972
   39  C  5  X   -0.000070  -0.071518   0.048247   0.076352  -0.032810
   40  C  5  Y    0.000002   0.016801  -0.014751  -0.048748  -0.074147
   41  C  5  Z   -0.000002  -0.001032   0.000802   0.003367   0.000961
   42  C  5  S    0.003585   0.000295  -0.014535   0.106672  -0.029426
   43  C  5  X    0.003008   0.096867  -0.014386   0.017945  -0.011758
   44  C  5  Y    0.000319   0.002302   0.031038  -0.036776  -0.005992
   45  C  5  Z    0.000060   0.001683  -0.001682   0.001932  -0.000199
   46  C  6  S   -0.000067  -0.008646   0.004060  -0.062889  -0.128084
   47  C  6  S   -0.000074   0.019838  -0.004681   0.126757   0.259510
   48  C  6  X   -0.000048  -0.003810  -0.004429   0.016167  -0.052835
   49  C  6  Y   -0.000009   0.009471  -0.003878   0.039247   0.059287
   50  C  6  Z   -0.000003   0.000070   0.000059   0.001163  -0.000235
   51  C  6  S   -0.000788  -0.059530   0.033513   0.077834   0.139713
   52  C  6  X    0.000890   0.001643  -0.014687  -0.003277   0.003829
   53  C  6  Y   -0.000525  -0.036204  -0.001741   0.004847  -0.013860
   54  C  6  Z    0.000021  -0.001129  -0.001233  -0.000283  -0.000268
   55  C  7  S    0.001771  -0.014623   0.013564  -0.115016  -0.053489
   56  C  7  S    0.000235   0.026668  -0.025969   0.231498   0.108201
   57  C  7  X   -0.000033  -0.009039   0.004810   0.023452  -0.069758
   58  C  7  Y   -0.000034   0.014898  -0.013574   0.023372  -0.048715
   59  C  7  Z   -0.000004  -0.000741   0.000610  -0.000377  -0.002609
   60  C  7  S   -0.005288   0.022442   0.013561   0.099681   0.059639
   61  C  7  X   -0.003571  -0.075502   0.020555  -0.006445  -0.048671
   62  C  7  Y   -0.000258  -0.003544   0.000448  -0.016914  -0.008666
   63  C  7  Z   -0.000123  -0.002536   0.000548  -0.000027  -0.001936
   64  C  8  S    0.025450  -0.010077   0.011562  -0.073742   0.070951
   65  C  8  S    0.000880   0.021712  -0.021955   0.145331  -0.141803
   66  C  8  X   -0.000115  -0.011276   0.012066   0.010946  -0.019475
   67  C  8  Y    0.000010  -0.007751   0.008840  -0.056266   0.034408
   68  C  8  Z   -0.000008   0.000125  -0.000114   0.003004  -0.002590
   69  C  8  S   -0.006372  -0.043990  -0.021141   0.090021  -0.092492
   70  C  8  X   -0.000563  -0.019032   0.019439  -0.008324  -0.005016
   71  C  8  Y    0.003126   0.030865   0.002347  -0.001582   0.001615
   72  C  8  Z   -0.000148  -0.001738   0.000619  -0.000303  -0.000294
   73  C  9  S   -0.046799  -0.002372   0.003433  -0.091027   0.009650
   74  C  9  S   -0.002374   0.005060  -0.006152   0.178964  -0.021256
   75  C  9  X   -0.000149  -0.003787   0.003613  -0.030247  -0.043385
   76  C  9  Y   -0.000216   0.002420  -0.002591   0.054167  -0.027956
   77  C  9  Z    0.000001  -0.000253   0.000213  -0.003534  -0.001034
   78  C  9  S    0.012667   0.048838  -0.023521   0.119647   0.026548
   79  C  9  X   -0.000033  -0.014505   0.006304  -0.004777  -0.013234
   80  C  9  Y    0.005573   0.012772  -0.005282   0.019182   0.020056
   81  C  9  Z   -0.000224  -0.001373   0.000730  -0.001002  -0.001414
   82  C 10  S   -0.076439  -0.001922   0.002923  -0.073397   0.074232
   83  C 10  S   -0.003100   0.003685  -0.006293   0.144838  -0.149164
   84  C 10  X    0.000053  -0.003309   0.003474  -0.040134   0.035867
   85  C 10  Y    0.000242  -0.000335   0.000905  -0.035616   0.022144
   86  C 10  Z   -0.000008  -0.000116   0.000081   0.000116   0.000278
   87  C 10  S    0.012222   0.034230  -0.010393   0.092430  -0.084843
   88  C 10  X   -0.002885  -0.013147   0.003016  -0.008553  -0.001401
   89  C 10  Y   -0.005151   0.000570  -0.006792  -0.005404   0.000096
   90  C 10  Z    0.000114  -0.000630   0.000439  -0.000062  -0.000093
   91  C 11  S    0.991908  -0.000906   0.001861  -0.076261   0.054373
   92  C 11  S    0.025395   0.003700  -0.004406   0.150033  -0.106623
   93  C 11  X   -0.000473  -0.001901   0.002240  -0.053393   0.022509
   94  C 11  Y    0.000161   0.000692  -0.000958   0.011880  -0.033044
   95  C 11  Z   -0.000035  -0.000137   0.000161  -0.003282   0.002637
   96  C 11  S   -0.023161  -0.011457  -0.001166   0.078007  -0.087341
   97  C 11  X    0.006383   0.013338  -0.004883  -0.002229   0.016086
   98  C 11  Y   -0.002319  -0.003628  -0.000861   0.001782  -0.004986
   99  C 11  Z    0.000434   0.000881  -0.000251  -0.000213   0.001029
  100  H 12  S   -0.000037   0.006298   0.003652   0.011968   0.051665
  101  H 12  S   -0.000071   0.009181  -0.006681  -0.001531   0.007194
  102  H 13  S   -0.000081   0.001094  -0.001884   0.027122   0.059520
  103  H 13  S   -0.000155  -0.009981  -0.004235   0.003643   0.001533
  104  H 14  S   -0.000051   0.001797  -0.003235   0.024955  -0.032049
  105  H 14  S   -0.000488  -0.007745  -0.000372  -0.002603  -0.003458
  106  H 15  S    0.000016   0.000261  -0.000754   0.036032   0.000414
  107  H 15  S    0.000898   0.001841   0.000105   0.008646   0.009175
  108  H 16  S    0.000048  -0.000039  -0.000187   0.026732  -0.033115
  109  H 16  S    0.000990  -0.000401   0.001937   0.003609  -0.003401
  110  H 17  S   -0.000397  -0.000502  -0.000048   0.027713  -0.024021
  111  H 17  S    0.000754  -0.004611   0.001845   0.002563  -0.007097

                     16         17         18         19         20
                   -1.0473    -1.0418    -0.9006    -0.8834    -0.8666
                     A          A          A          A          A   
    1  O  1  S    0.023183   0.029455  -0.036060  -0.045309   0.007728
    2  O  1  S   -0.051767  -0.067387   0.084051   0.105224  -0.015050
    3  O  1  X    0.008172  -0.000229  -0.011174  -0.059976   0.014152
    4  O  1  Y    0.010913  -0.014361   0.069180  -0.011051   0.013571
    5  O  1  Z   -0.000806  -0.000548   0.003125   0.005432  -0.002000
    6  O  1  S   -0.062027  -0.071934   0.099768   0.121154  -0.037692
    7  O  1  X    0.003629   0.002302  -0.007549  -0.033123   0.001123
    8  O  1  Y    0.011202  -0.000524   0.026843  -0.015847   0.010513
    9  O  1  Z   -0.000334  -0.000528   0.001578   0.003096  -0.000438
   10  C  2  S   -0.031054  -0.041305   0.062236   0.082870  -0.001087
   11  C  2  S    0.068344   0.091072  -0.142859  -0.188568   0.004311
   12  C  2  X    0.073067   0.058777  -0.029896  -0.124332   0.001945
   13  C  2  Y    0.032513  -0.079822   0.190776  -0.043496   0.044276
   14  C  2  Z   -0.006545  -0.007248   0.008117   0.011604  -0.001932
   15  C  2  S    0.049897   0.058657  -0.124243  -0.140413   0.013404
   16  C  2  X   -0.003164   0.010528  -0.020951  -0.025563  -0.013413
   17  C  2  Y   -0.034088  -0.033191   0.060434   0.070321   0.001368
   18  C  2  Z   -0.000301  -0.001157   0.003409   0.003205   0.000445
   19  O  3  S   -0.028722   0.005458  -0.034197  -0.019778  -0.022792
   20  O  3  S    0.064438  -0.012145   0.079677   0.045361   0.057003
   21  O  3  X   -0.128166  -0.051892  -0.033724   0.275627  -0.070993
   22  O  3  Y   -0.024949  -0.012973   0.052116   0.101005   0.084195
   23  O  3  Z    0.001583  -0.000577   0.001667  -0.006142  -0.001338
   24  O  3  S    0.089053  -0.018259   0.113792   0.066063   0.065298
   25  O  3  X   -0.078119  -0.039530  -0.012799   0.182750  -0.050014
   26  O  3  Y   -0.017647  -0.008066   0.019620   0.057769   0.041727
   27  O  3  Z    0.001700   0.000310   0.000411  -0.004897  -0.000712
   28  C  4  S   -0.001128  -0.100241   0.079067  -0.031725  -0.014769
   29  C  4  S    0.005615   0.200978  -0.162497   0.058297   0.032721
   30  C  4  X   -0.010512   0.028484   0.117415   0.046314   0.001162
   31  C  4  Y    0.018254   0.013232  -0.117022  -0.120487  -0.050826
   32  C  4  Z    0.000074   0.001686  -0.002314  -0.002297  -0.001587
   33  C  4  S   -0.020161   0.150568  -0.121537   0.082285   0.039358
   34  C  4  X    0.007079   0.009617   0.031207  -0.019252   0.003806
   35  C  4  Y   -0.022814  -0.006268  -0.003902   0.013414  -0.029687
   36  C  4  Z   -0.001940  -0.000514   0.000590   0.002153  -0.001635
   37  C  5  S    0.109485   0.042185   0.052834  -0.041821   0.050155
   38  C  5  S   -0.230909  -0.089201  -0.114650   0.086997  -0.107872
   39  C  5  X   -0.057159   0.025007  -0.058839  -0.110374   0.077824
   40  C  5  Y   -0.037666   0.087351  -0.010092   0.146389   0.204778
   41  C  5  Z   -0.000016  -0.002593  -0.001607  -0.007035  -0.005226
   42  C  5  S   -0.177617  -0.060130  -0.102891   0.089360  -0.083415
   43  C  5  X   -0.034325  -0.002195  -0.000631   0.006384   0.017634
   44  C  5  Y    0.035607   0.037221   0.025200  -0.052431   0.098158
   45  C  5  Z   -0.002320  -0.001764  -0.000802   0.002011  -0.003299
   46  C  6  S    0.010546  -0.031073  -0.105963  -0.044684  -0.027973
   47  C  6  S   -0.024191   0.062053   0.219347   0.091312   0.056430
   48  C  6  X    0.002206  -0.124420   0.095185  -0.099855  -0.020940
   49  C  6  Y   -0.014975  -0.003423  -0.027990  -0.048867  -0.085878
   50  C  6  Z    0.000217  -0.003343   0.000680  -0.004454  -0.001691
   51  C  6  S    0.006801   0.037962   0.178479   0.094552   0.069127
   52  C  6  X    0.017944  -0.003348   0.026306  -0.047286   0.026334
   53  C  6  Y    0.018537  -0.008833  -0.038586  -0.015786  -0.025246
   54  C  6  Z    0.001708  -0.000149  -0.000766  -0.003055   0.000933
   55  C  7  S    0.013708   0.099549  -0.027051   0.068047   0.037320
   56  C  7  S   -0.030255  -0.203178   0.055222  -0.133960  -0.077958
   57  C  7  X    0.078215  -0.054935  -0.099581  -0.043593   0.132691
   58  C  7  Y   -0.083109  -0.017977  -0.131518  -0.004483  -0.168021
   59  C  7  Z    0.006422  -0.001656  -0.003580  -0.001861   0.010388
   60  C  7  S    0.003748  -0.146799   0.066114  -0.172964  -0.038176
   61  C  7  X    0.040734  -0.023040  -0.059199   0.003308   0.047187
   62  C  7  Y    0.029235   0.016541  -0.014910  -0.060063   0.008971
   63  C  7  Z    0.001235  -0.001058  -0.002715   0.001898   0.002145
   64  C  8  S    0.094658  -0.070292   0.007252   0.027367  -0.094160
   65  C  8  S   -0.191621   0.141434  -0.013982  -0.055040   0.193747
   66  C  8  X    0.065046   0.084292   0.100568  -0.124229  -0.023484
   67  C  8  Y    0.043281  -0.003788   0.040271  -0.000490   0.049648
   68  C  8  Z    0.000265   0.003480   0.001892  -0.004043  -0.002858
   69  C  8  S   -0.143051   0.092634  -0.024269  -0.032255   0.149045
   70  C  8  X    0.014353   0.017931   0.025029  -0.052310   0.018139
   71  C  8  Y   -0.011951   0.000549   0.007741   0.008731   0.038555
   72  C  8  Z    0.001165   0.000766   0.000493  -0.001992  -0.000889
   73  C  9  S   -0.103914   0.072154   0.043621  -0.007032  -0.091111
   74  C  9  S    0.210589  -0.147416  -0.089825   0.015886   0.187410
   75  C  9  X    0.059712   0.077400  -0.052686   0.139442  -0.021670
   76  C  9  Y    0.041137  -0.003381  -0.036795   0.007267  -0.071279
   77  C  9  Z    0.001203   0.003729  -0.001822   0.006295   0.001339
   78  C  9  S    0.132765  -0.089254  -0.058413   0.012487   0.155300
   79  C  9  X    0.007118  -0.001483  -0.027931   0.041458  -0.005023
   80  C  9  Y   -0.020725   0.014002  -0.000588   0.013429  -0.056848
   81  C  9  Z    0.000960  -0.000588  -0.001681   0.001542   0.001468
   82  C 10  S   -0.020593  -0.111802  -0.070475   0.041474   0.041752
   83  C 10  S    0.041231   0.224954   0.144552  -0.082204  -0.085806
   84  C 10  X    0.068560  -0.033555   0.023078   0.066297  -0.118040
   85  C 10  Y   -0.084702  -0.006845   0.022248  -0.082897   0.107190
   86  C 10  Z    0.006681  -0.000791   0.000092   0.006638  -0.009989
   87  C 10  S    0.020029   0.171969   0.132419  -0.063790  -0.085710
   88  C 10  X    0.008809  -0.000664   0.017306   0.002311  -0.025313
   89  C 10  Y   -0.003196  -0.005031   0.009100  -0.011800   0.004468
   90  C 10  Z    0.000403   0.000197   0.000329   0.000664  -0.001416
   91  C 11  S   -0.117397  -0.038156   0.010034  -0.075002   0.054347
   92  C 11  S    0.234809   0.077551  -0.019218   0.153772  -0.110936
   93  C 11  X   -0.045310   0.019946   0.040909   0.022216  -0.062513
   94  C 11  Y   -0.030183   0.094219   0.098368  -0.054749  -0.128242
   95  C 11  Z   -0.001260  -0.003232  -0.002491   0.003260   0.002638
   96  C 11  S    0.193043   0.045254  -0.016582   0.130554  -0.091997
   97  C 11  X   -0.009189   0.009317   0.007730   0.026571  -0.031871
   98  C 11  Y   -0.002912   0.002736   0.009029  -0.007942  -0.027966
   99  C 11  Z   -0.000333   0.000324  -0.000030   0.001499  -0.000140
  100  H 12  S    0.000049   0.057669  -0.072722   0.040668   0.025165
  101  H 12  S   -0.003816   0.010375  -0.018117   0.018915   0.004920
  102  H 13  S   -0.001457   0.013956   0.107245   0.051025   0.060390
  103  H 13  S    0.006978  -0.002329   0.028361   0.020607   0.023840
  104  H 14  S   -0.053299   0.040613   0.002259  -0.012149   0.102314
  105  H 14  S   -0.001850   0.009995   0.005255  -0.008831   0.032998
  106  H 15  S    0.061446  -0.042595  -0.024910   0.017609   0.106494
  107  H 15  S    0.005722  -0.004415  -0.003099   0.012448   0.030706
  108  H 16  S    0.011948   0.066419   0.070326  -0.036642  -0.041930
  109  H 16  S    0.001933   0.015211   0.021247  -0.013478  -0.011605
  110  H 17  S    0.067682   0.022245  -0.004639   0.077895  -0.054066
  111  H 17  S    0.015307   0.002683  -0.002336   0.023466  -0.016046

                     21         22         23         24         25
                   -0.7692    -0.7399    -0.7044    -0.6641    -0.6596
                     A          A          A          A          A   
    1  O  1  S   -0.008552  -0.011685  -0.055799   0.017235   0.010449
    2  O  1  S    0.019213   0.030188   0.126131  -0.038413  -0.023800
    3  O  1  X   -0.062953  -0.032588  -0.158319   0.096626   0.062447
    4  O  1  Y   -0.106931   0.027969   0.127084   0.062358  -0.012594
    5  O  1  Z    0.002071  -0.001246   0.021339  -0.012025   0.159358
    6  O  1  S    0.021127   0.017849   0.214845  -0.069034  -0.038962
    7  O  1  X   -0.033676  -0.025329  -0.074283   0.048683   0.033722
    8  O  1  Y   -0.059006   0.014871   0.062283   0.038753  -0.005565
    9  O  1  Z    0.001419  -0.000000   0.010752  -0.006822   0.090693
   10  C  2  S    0.013863   0.042898   0.055599   0.006525  -0.009496
   11  C  2  S   -0.034501  -0.098888  -0.141804  -0.008067   0.025195
   12  C  2  X   -0.070013  -0.035007   0.115523  -0.044710  -0.006779
   13  C  2  Y   -0.211118   0.058419   0.065006   0.151664   0.011890
   14  C  2  Z    0.000358  -0.003129   0.001185  -0.000436   0.231002
   15  C  2  S   -0.004680  -0.062828  -0.121283  -0.016482   0.018399
   16  C  2  X   -0.019850  -0.028429   0.010943   0.003765   0.013814
   17  C  2  Y   -0.030298   0.037149   0.044275   0.041686  -0.003285
   18  C  2  Z   -0.000498   0.000131   0.003828  -0.001513   0.118728
   19  O  3  S   -0.012634  -0.035460   0.002025  -0.000595   0.006878
   20  O  3  S    0.025725   0.085371  -0.007377   0.010377  -0.016888
   21  O  3  X    0.261213  -0.014804   0.002817  -0.130873   0.025992
   22  O  3  Y    0.017400   0.115426  -0.098308   0.065920  -0.009252
   23  O  3  Z   -0.012538  -0.006237   0.009228   0.006800   0.446286
   24  O  3  S    0.053443   0.117683  -0.005718  -0.031905  -0.023765
   25  O  3  X    0.163831  -0.004419   0.013205  -0.094548   0.019461
   26  O  3  Y    0.012930   0.069402  -0.059384   0.049804  -0.004853
   27  O  3  Z   -0.007702  -0.004421   0.005326   0.004273   0.301410
   28  C  4  S   -0.019495  -0.049784  -0.021963  -0.025971   0.003076
   29  C  4  S    0.037733   0.101787   0.042266   0.053309  -0.004435
   30  C  4  X   -0.129625  -0.077480   0.171700  -0.092961   0.012749
   31  C  4  Y    0.084717  -0.180982  -0.089901  -0.166437  -0.006066
   32  C  4  Z    0.002009  -0.010711  -0.000150  -0.012553   0.084717
   33  C  4  S    0.042490   0.115989   0.021759   0.070603  -0.014327
   34  C  4  X   -0.046911  -0.056362   0.038915  -0.061299  -0.000155
   35  C  4  Y    0.025295  -0.076784  -0.007579  -0.086628  -0.006416
   36  C  4  Z    0.001291  -0.005398   0.000587  -0.007314   0.041366
   37  C  5  S    0.022416   0.003223   0.007935  -0.026599  -0.008281
   38  C  5  S   -0.046457  -0.007201  -0.018068   0.060804   0.018891
   39  C  5  X   -0.215196   0.035827  -0.087045   0.085163  -0.011982
   40  C  5  Y    0.025149  -0.044992  -0.155782  -0.113052   0.013399
   41  C  5  Z   -0.005984   0.003696   0.006916   0.006384   0.171203
   42  C  5  S   -0.088902  -0.035391  -0.050950   0.096902   0.009375
   43  C  5  X   -0.082226  -0.014081  -0.062797   0.021534  -0.001363
   44  C  5  Y   -0.061430   0.010913  -0.102723   0.026008  -0.002606
   45  C  5  Z   -0.000203  -0.000666   0.004145   0.000438   0.096382
   46  C  6  S    0.039302   0.020126   0.013279   0.026508  -0.002282
   47  C  6  S   -0.083635  -0.046706  -0.029695  -0.054131   0.004819
   48  C  6  X    0.094769  -0.136109  -0.211552  -0.065627  -0.018385
   49  C  6  Y    0.038406  -0.113421   0.141030  -0.024887  -0.025595
   50  C  6  Z    0.006114  -0.007691  -0.001941  -0.004814   0.063468
   51  C  6  S   -0.050597   0.008108  -0.019722  -0.066436   0.009789
   52  C  6  X    0.013224  -0.028802  -0.083661  -0.022191  -0.005777
   53  C  6  Y    0.045595  -0.007273   0.086973  -0.002491  -0.011144
   54  C  6  Z    0.002349  -0.001319  -0.000230  -0.001230   0.037593
   55  C  7  S   -0.022443  -0.008732   0.017215  -0.030747   0.008562
   56  C  7  S    0.048995   0.016575  -0.036015   0.063763  -0.018015
   57  C  7  X    0.041709   0.205366  -0.040991   0.030473   0.003554
   58  C  7  Y   -0.115156   0.075644   0.140626   0.128049   0.011650
   59  C  7  Z    0.006484   0.008316  -0.000152  -0.001390   0.092277
   60  C  7  S    0.047432   0.046789  -0.057076   0.114167  -0.020550
   61  C  7  X    0.079826   0.125515   0.026651   0.004758   0.002591
   62  C  7  Y   -0.054835   0.050346   0.031087   0.053137   0.004907
   63  C  7  Z    0.005371   0.004667   0.002377  -0.001544   0.048368
   64  C  8  S    0.026118   0.048278  -0.005043   0.001584   0.005789
   65  C  8  S   -0.057875  -0.100487   0.005632  -0.001951  -0.011980
   66  C  8  X    0.100605   0.066922   0.166234  -0.092508  -0.001073
   67  C  8  Y    0.102210  -0.122344   0.067632   0.104229  -0.023546
   68  C  8  Z   -0.000580   0.008145   0.003923  -0.008147   0.067249
   69  C  8  S    0.034160  -0.099695   0.079997  -0.024094  -0.005424
   70  C  8  X   -0.000827   0.031176   0.021519   0.002346  -0.000480
   71  C  8  Y   -0.010600  -0.080234  -0.008762   0.057783  -0.015125
   72  C  8  Z    0.000591   0.005119   0.001312  -0.002694   0.029198
   73  C  9  S   -0.034858  -0.008786  -0.038213   0.004916  -0.004964
   74  C  9  S    0.077541   0.022984   0.081032  -0.010984   0.010646
   75  C  9  X   -0.110442  -0.149068   0.131466  -0.041204   0.003971
   76  C  9  Y   -0.111032   0.102913  -0.014881  -0.102558  -0.023986
   77  C  9  Z   -0.000956  -0.010797   0.009147   0.002646   0.040182
   78  C  9  S    0.001405  -0.052815   0.061515  -0.000766   0.006410
   79  C  9  X   -0.000107  -0.021019   0.060015  -0.005325   0.002027
   80  C  9  Y   -0.086903   0.003866  -0.029466  -0.040118  -0.018128
   81  C  9  Z    0.003312  -0.001198   0.005293   0.001732   0.018121
   82  C 10  S   -0.062412  -0.035023  -0.011063   0.007935  -0.006066
   83  C 10  S    0.133631   0.073931   0.024548  -0.021775   0.013551
   84  C 10  X    0.080489  -0.015374  -0.090206   0.200483   0.006992
   85  C 10  Y    0.119608  -0.052920   0.153266   0.157419   0.008343
   86  C 10  Z   -0.002169   0.001777  -0.010768   0.001377   0.030023
   87  C 10  S    0.094414   0.031918   0.002119  -0.002690   0.006451
   88  C 10  X    0.065297   0.014722  -0.012970   0.081139   0.010861
   89  C 10  Y    0.087696   0.005873   0.076183   0.047804   0.010694
   90  C 10  Z   -0.001366   0.000167  -0.003973   0.001441   0.016126
   91  C 11  S    0.047216   0.039569   0.025479   0.002858   0.006264
   92  C 11  S   -0.098899  -0.082381  -0.054149  -0.009560  -0.013486
   93  C 11  X    0.018139  -0.132050  -0.090093   0.239736  -0.007547
   94  C 11  Y    0.054316   0.124883  -0.140153  -0.067419   0.006899
   95  C 11  Z   -0.001653  -0.011833   0.002462   0.015013   0.021415
   96  C 11  S   -0.035029  -0.064366  -0.032624   0.000261  -0.005274
   97  C 11  X   -0.041069  -0.084221  -0.053745   0.098608  -0.012884
   98  C 11  Y    0.036880   0.054855  -0.020018  -0.029139   0.005167
   99  C 11  Z   -0.003648  -0.006364  -0.001498   0.006139   0.010308
  100  H 12  S    0.044404   0.136263  -0.021136   0.127898  -0.009673
  101  H 12  S    0.022123   0.056284  -0.007598   0.058019  -0.009064
  102  H 13  S   -0.047792   0.022083  -0.113534  -0.023108   0.015255
  103  H 13  S   -0.008717   0.022626  -0.052045  -0.008546   0.009546
  104  H 14  S    0.012923  -0.113996   0.020294   0.068598  -0.021850
  105  H 14  S    0.017771  -0.039726   0.016266   0.040326  -0.012380
  106  H 15  S    0.075677  -0.060592   0.063453   0.047756   0.021757
  107  H 15  S    0.020608  -0.046943   0.025732   0.030296   0.011332
  108  H 16  S    0.128828   0.011139   0.030418   0.138342   0.013292
  109  H 16  S    0.044111  -0.005615   0.008764   0.092141   0.004196
  110  H 17  S   -0.044220  -0.123671  -0.049980   0.141010  -0.011690
  111  H 17  S   -0.006361  -0.054591  -0.018467   0.090839  -0.003890

                     26         27         28         29         30
                   -0.6503    -0.6334    -0.6249    -0.6018    -0.5609
                     A          A          A          A          A   
    1  O  1  S   -0.017822   0.022921   0.063645   0.010845  -0.012048
    2  O  1  S    0.042746  -0.053531  -0.143719  -0.026258   0.031608
    3  O  1  X   -0.084517   0.095916   0.362287   0.099468  -0.172431
    4  O  1  Y    0.039703  -0.097261  -0.103289  -0.001978  -0.118256
    5  O  1  Z    0.028645  -0.004447  -0.044277  -0.007400   0.012670
    6  O  1  S    0.054779  -0.085477  -0.256180  -0.026766   0.018138
    7  O  1  X   -0.052919   0.051114   0.194459   0.064286  -0.114836
    8  O  1  Y    0.021504  -0.057764  -0.055522  -0.001716  -0.070971
    9  O  1  Z    0.016793  -0.002584  -0.024391  -0.004231   0.008820
   10  C  2  S    0.029895  -0.002462  -0.020822  -0.029346   0.000765
   11  C  2  S   -0.076377   0.011339   0.076929   0.076201  -0.012414
   12  C  2  X    0.018350  -0.116472  -0.303922  -0.011496   0.044482
   13  C  2  Y   -0.028245   0.007841   0.086182   0.015151  -0.180647
   14  C  2  Z    0.026430   0.016956   0.008900   0.000061  -0.005749
   15  C  2  S   -0.025552  -0.005041   0.013452   0.030991   0.038882
   16  C  2  X   -0.001191  -0.003585   0.000023   0.025399  -0.053087
   17  C  2  Y    0.029498  -0.011963   0.042220  -0.002490  -0.054682
   18  C  2  Z    0.016153   0.005197  -0.008659  -0.004217   0.003131
   19  O  3  S   -0.028577  -0.010280  -0.014399   0.028047  -0.031866
   20  O  3  S    0.075981   0.019477   0.045627  -0.070804   0.079687
   21  O  3  X   -0.043365   0.059404   0.065782   0.074119  -0.075007
   22  O  3  Y    0.217923  -0.003547   0.229724  -0.153531   0.269547
   23  O  3  Z    0.051676   0.020834  -0.045189  -0.025063  -0.004306
   24  O  3  S    0.076280   0.064889   0.006355  -0.089905   0.111969
   25  O  3  X   -0.025494   0.042576   0.046847   0.067304  -0.078720
   26  O  3  Y    0.150796  -0.003512   0.163292  -0.102877   0.183223
   27  O  3  Z    0.033547   0.014654  -0.032149  -0.017770  -0.003369
   28  C  4  S   -0.031346   0.013733   0.000079   0.013676   0.006209
   29  C  4  S    0.066456  -0.029227   0.002464  -0.026753  -0.011765
   30  C  4  X    0.059882  -0.169462   0.144624   0.196675   0.061147
   31  C  4  Y    0.010753  -0.057910  -0.025383   0.041709   0.163836
   32  C  4  Z    0.015056  -0.003787   0.000500   0.004873   0.018549
   33  C  4  S    0.054551  -0.048577  -0.035130  -0.038548  -0.003101
   34  C  4  X   -0.015283  -0.088951   0.001551   0.104802   0.068540
   35  C  4  Y    0.001164  -0.032865  -0.007696   0.051209   0.094105
   36  C  4  Z    0.006688  -0.001982   0.000333   0.004328   0.011787
   37  C  5  S    0.053047   0.025356  -0.001710  -0.013156   0.000556
   38  C  5  S   -0.123046  -0.059999   0.006625   0.029080  -0.000705
   39  C  5  X    0.021244  -0.154005  -0.017650  -0.053845   0.145714
   40  C  5  Y    0.067758  -0.181286  -0.005879   0.049909  -0.002283
   41  C  5  Z    0.022490   0.010353  -0.017742  -0.017863   0.015700
   42  C  5  S   -0.048697  -0.007479  -0.009000   0.026080  -0.025760
[...]
    7             0.079190   0.320363   0.186446   0.147821   0.236635
    8             0.278754   0.243355   0.077208   0.113724   0.260554
    9             0.313350   0.215985   0.083479   0.115288   0.286950
   10             0.089568   0.398211   0.185861   0.086198   0.170104
   11             0.500721   0.070961   0.066143   0.198955   0.184959
   12            -0.000030   0.026164   0.041627   0.014110   0.003534
   13            -0.000076   0.000444   0.082156   0.022942   0.040350
   14             0.015740   0.018764   0.000047   0.002028   0.080265
   15             0.023012   0.017998   0.005142   0.001653   0.086215
   16             0.002685   0.038468   0.044760   0.006209   0.013986
   17             0.042874   0.001690   0.000054   0.050248   0.018591

                     21         22         23         24         25

                  2.000000   2.000000   2.000000   2.000000   2.000000

    1             0.081697   0.012178   0.313100   0.070001   0.159017
    2             0.187078   0.068342   0.140393   0.094283   0.357912
    3             0.295050   0.102453   0.059116   0.100305   1.031942
    4             0.134760   0.328848   0.172753   0.244224   0.059273
    5             0.236764   0.008427   0.156610   0.086187   0.229947
    6             0.083492   0.148957   0.336006   0.047243   0.037238
    7             0.116182   0.270864   0.101338   0.090051   0.067621
    8             0.094381   0.217267   0.131498   0.092516   0.032819
    9             0.192987   0.143061   0.129059   0.062126   0.011348
   10             0.297082   0.034802   0.164567   0.308143   0.007869
   11             0.070830   0.277395   0.157135   0.326218   0.004215
   12             0.014952   0.135311   0.005180   0.118677   0.000053
   13             0.011203   0.007469   0.081643   0.009131   0.000044
   14             0.003089   0.095842   0.001885   0.035993   0.000248
   15             0.045234   0.031965   0.023618   0.018912   0.000285
   16             0.120846   0.000427   0.003942   0.140831   0.000157
   17             0.014372   0.116391   0.022154   0.155159   0.000012

                     26         27         28         29         30

                  2.000000   2.000000   2.000000   2.000000   2.000000

    1             0.138383   0.102184   0.840340   0.025006   0.165233
    2             0.033625   0.040853   0.259183   0.019291   0.097960
    3             0.212498   0.010514   0.249119   0.176696   0.402698
    4             0.036242   0.174945   0.103238   0.179760   0.123308
    5             0.087483   0.199535   0.005580   0.010768   0.063165
    6             0.333746   0.082224   0.233977   0.230598   0.023438
    7             0.129462   0.045788   0.015301   0.195637   0.023789
    8             0.198592   0.363806   0.017108   0.251607   0.118363
    9             0.262868   0.334611   0.024224   0.166123   0.108629
   10             0.065901   0.133577   0.009900   0.262755   0.287830
   11             0.038858   0.146837   0.051934   0.049939   0.240774
   12             0.000292   0.065030   0.045189   0.109533   0.056177
   13             0.209530   0.030931   0.097380   0.050113   0.017878
   14             0.111842   0.104568   0.008722   0.076851   0.069431
   15             0.129819   0.147690   0.003631   0.050936   0.058010
   16             0.009890   0.016569   0.006109   0.112122   0.111263
   17             0.000969   0.000339   0.029066   0.032266   0.032054

                     31         32         33         34         35

                  2.000000   2.000000   2.000000   2.000000   2.000000

    1             0.392760   0.055931   0.242996   0.407996   1.251762
    2             0.247581   0.014602   0.048472   0.131719   0.101998
    3             0.002672   0.068888   0.322269   0.591920   0.217404
    4             0.008011   0.094834   0.039991   0.224200   0.227915
    5             0.254648   0.042268   0.188283   0.018951   0.026337
    6             0.021839   0.129310   0.085414   0.214600   0.052631
    7             0.309044   0.226377   0.227867   0.135689   0.019934
    8             0.198913   0.159666   0.127552   0.001373   0.030785
    9             0.216164   0.249526   0.144075   0.140456   0.001406
   10             0.170981   0.202179   0.119308   0.034166   0.011864
   11             0.175990   0.365246   0.113102   0.097700   0.003494
   12             0.000243   0.040058   0.035091   0.000507   0.016045
   13             0.000006   0.000048   0.038846   0.000070   0.028346
   14             0.000007   0.008423   0.106967   0.000143   0.001207
   15             0.000002   0.006744   0.108006   0.000143   0.002541
   16             0.000516   0.089634   0.041454   0.000297   0.005798
   17             0.000623   0.246264   0.010308   0.000070   0.000532

                     36         37         38

                  2.000000   2.000000   2.000000

    1             0.266558   0.000982   0.215961
    2             0.018295  -0.000669   0.002550
    3             0.004739   0.095497   0.082282
    4             0.332308   0.095133   0.364764
    5             0.001191   0.159840   0.294488
    6             0.488623   0.038632   0.082256
    7             0.138831   0.043314   0.389378
    8             0.170518   0.621688   0.001011
    9             0.007326   0.587567   0.007184
   10             0.351577   0.103691   0.286386
   11             0.219793   0.254319   0.273733
   12             0.000050   0.000001   0.000001
   13             0.000156   0.000001   0.000004
   14             0.000001   0.000003   0.000000
   15             0.000007   0.000000   0.000001
   16             0.000023   0.000000   0.000000
   17             0.000004   0.000000   0.000001

               ----- POPULATIONS IN EACH AO -----
                             MULLIKEN      LOWDIN
              1  O  1  S      1.99808     1.99499
              2  O  1  S      0.91223     0.88496
              3  O  1  X      0.92503     0.89012
              4  O  1  Y      1.09946     1.06498
              5  O  1  Z      0.82084     0.78614
              6  O  1  S      1.06262     0.73568
              7  O  1  X      0.47141     0.60101
              8  O  1  Y      0.63218     0.71708
              9  O  1  Z      0.61985     0.65657
             10  C  2  S      1.99766     1.98559
             11  C  2  S      0.73891     0.55663
             12  C  2  X      0.70134     0.64446
             13  C  2  Y      0.73651     0.67130
             14  C  2  Z      0.47158     0.42155
             15  C  2  S      0.19799     0.34664
             16  C  2  X     -0.08681     0.29690
             17  C  2  Y      0.15911     0.35000
             18  C  2  Z      0.28761     0.35781
             19  O  3  S      1.99799     1.99371
             20  O  3  S      0.87322     0.85709
             21  O  3  X      0.80523     0.77031
             22  O  3  Y      1.03518     1.00636
             23  O  3  Z      1.07124     1.04567
             24  O  3  S      1.11277     0.65837
             25  O  3  X      0.51271     0.51536
             26  O  3  Y      0.65510     0.70061
             27  O  3  Z      0.73917     0.74513
             28  C  4  S      1.99775     1.98914
             29  C  4  S      0.69045     0.55531
             30  C  4  X      0.77990     0.71736
             31  C  4  Y      0.70815     0.66204
             32  C  4  Z      0.57186     0.53823
             33  C  4  S      0.53143     0.40633
             34  C  4  X      0.27430     0.39869
             35  C  4  Y      0.24499     0.39654
             36  C  4  Z      0.51222     0.53615
             37  C  5  S      1.99774     1.98730
             38  C  5  S      0.71068     0.54639
             39  C  5  X      0.62586     0.58279
             40  C  5  Y      0.80014     0.73800
             41  C  5  Z      0.55634     0.50842
             42  C  5  S      0.37519     0.34696
             43  C  5  X     -0.01875     0.29372
             44  C  5  Y      0.16286     0.35898
             45  C  5  Z      0.40379     0.45862
             46  C  6  S      1.99782     1.98939
             47  C  6  S      0.71186     0.55809
             48  C  6  X      0.77795     0.72218
             49  C  6  Y      0.75254     0.68522
             50  C  6  Z      0.47214     0.43439
             51  C  6  S      0.43510     0.39228
             52  C  6  X      0.16202     0.36510
             53  C  6  Y      0.33967     0.42842
             54  C  6  Z      0.41169     0.45627
             55  C  7  S      1.99773     1.98807
             56  C  7  S      0.69450     0.53640
             57  C  7  X      0.75585     0.70367
             58  C  7  Y      0.73837     0.69224
             59  C  7  Z      0.58249     0.54285
             60  C  7  S      0.40373     0.36184
             61  C  7  X      0.32358     0.37558
             62  C  7  Y      0.11304     0.36888
             63  C  7  Z      0.50143     0.52234
             64  C  8  S      1.99775     1.98909
             65  C  8  S      0.69907     0.54922
             66  C  8  X      0.75513     0.70510
             67  C  8  Y      0.75011     0.68560
             68  C  8  Z      0.54901     0.51317
             69  C  8  S      0.44799     0.39174
             70  C  8  X      0.16366     0.35986
             71  C  8  Y      0.34332     0.42156
             72  C  8  Z      0.47780     0.51734
             73  C  9  S      1.99777     1.98916
             74  C  9  S      0.70401     0.55042
             75  C  9  X      0.75538     0.70235
             76  C  9  Y      0.75326     0.68599
             77  C  9  Z      0.51409     0.47832
             78  C  9  S      0.44034     0.38972
             79  C  9  X      0.15372     0.36343
             80  C  9  Y      0.39013     0.42719
             81  C  9  Z      0.45504     0.49906
             82  C 10  S      1.99778     1.98931
             83  C 10  S      0.70347     0.55171
             84  C 10  X      0.75745     0.69626
             85  C 10  Y      0.75926     0.69918
             86  C 10  Z      0.50239     0.46524
             87  C 10  S      0.48596     0.39493
             88  C 10  X      0.27620     0.40031
             89  C 10  Y      0.24831     0.39683
             90  C 10  Z      0.45284     0.49198
             91  C 11  S      1.99775     1.98920
             92  C 11  S      0.69577     0.54686
             93  C 11  X      0.74815     0.68247
             94  C 11  Y      0.75152     0.69967
             95  C 11  Z      0.53899     0.50264
             96  C 11  S      0.48113     0.39472
             97  C 11  X      0.35103     0.42257
             98  C 11  Y      0.16021     0.37482
             99  C 11  Z      0.48704     0.52272
            100  H 12  S      0.53192     0.50683
            101  H 12  S      0.22130     0.33908
            102  H 13  S      0.53856     0.51555
            103  H 13  S      0.22430     0.34389
            104  H 14  S      0.53286     0.50812
            105  H 14  S      0.21932     0.34214
            106  H 15  S      0.53982     0.51752
            107  H 15  S      0.23670     0.35189
            108  H 16  S      0.54085     0.51796
            109  H 16  S      0.24080     0.34852
            110  H 17  S      0.54011     0.51772
            111  H 17  S      0.24601     0.35187

          ----- MULLIKEN ATOMIC OVERLAP POPULATIONS -----
          (OFF-DIAGONAL ELEMENTS NEED TO BE MULTIPLIED BY 2)

             1           2           3           4           5

    1    8.1683605
    2    0.5651695   4.3181898
    3   -0.1023036   0.0993337   8.9017589
    4   -0.0930516   0.3234885  -0.1371230   5.4374931
    5   -0.0014641  -0.0263682   0.1635758  -0.0035055   4.7150766
    6    0.0047862  -0.0629910   0.0008537   0.4776851  -0.0711688
    7   -0.0003411   0.0015687  -0.0949491  -0.0537431   0.4291980
    8    0.0000390   0.0006201  -0.0371521  -0.0001752   0.5203085
    9    0.0000021   0.0008337   0.0035036   0.0029398  -0.0067553
   10    0.0000011   0.0000659   0.0033797   0.0000519  -0.0600534
   11   -0.0000002  -0.0000190  -0.0000859  -0.0002698  -0.0310098
   12    0.0005542  -0.0167090   0.0024596   0.3712727   0.0002904
   13   -0.0000336   0.0008409   0.0000179  -0.0143050   0.0014599
   14   -0.0000194  -0.0001223  -0.0005432   0.0000220  -0.0190913
   15   -0.0000000  -0.0000085  -0.0000441   0.0002676   0.0004849
   16   -0.0000000   0.0000000  -0.0000581  -0.0000000   0.0025394
   17   -0.0000000  -0.0000002   0.0000004   0.0000019   0.0003325

             6           7           8           9          10

    6    5.0189162
    7    0.3472275   5.2356798
    8    0.0043171  -0.0698085   5.0000293
    9   -0.0181031   0.4552775  -0.0384217   4.9452325
   10    0.0001413  -0.0259949   0.5152718  -0.0601291   4.9711573
   11    0.0038973  -0.0591287  -0.0601177   0.5249611   0.5080794
   12   -0.0209632   0.0018577   0.0000086  -0.0000732  -0.0000003
   13    0.3743049  -0.0311789  -0.0000967   0.0016051   0.0000058
   14   -0.0001229   0.0037819   0.3657769  -0.0000732  -0.0197057
   15    0.0021164  -0.0314906   0.0004645   0.3714118   0.0020071
   16   -0.0000005   0.0004222  -0.0194317   0.0025364   0.3717523
   17   -0.0000998   0.0023316   0.0021991  -0.0209936  -0.0223686

            11          12          13          14          15

   11    4.9877679
   12    0.0000011   0.4148046
   13    0.0001747  -0.0002891   0.4287015
   14    0.0019013  -0.0000002   0.0000013   0.4207533
   15   -0.0151039  -0.0000023   0.0016493   0.0000078   0.4449042
   16   -0.0238186   0.0000000  -0.0000001  -0.0003032  -0.0001100
   17    0.3743662  -0.0000000  -0.0000024  -0.0000879  -0.0000321

            16          17

   16    0.4483541
   17   -0.0002328   0.4507088

          TOTAL MULLIKEN AND LOWDIN ATOMIC POPULATIONS
       ATOM         MULL.POP.    CHARGE          LOW.POP.     CHARGE
    1 O             8.541699   -0.541699         8.331538   -0.331538
    2 C             5.203893    0.796107         5.630892    0.369108
    3 O             8.802624   -0.802624         8.292610   -0.292610
    4 C             6.311050   -0.311050         6.199778   -0.199778
    5 C             5.613850    0.386150         5.821174    0.178826
    6 C             6.060796   -0.060796         6.031316   -0.031316
    7 C             6.110710   -0.110710         6.091864   -0.091864
    8 C             6.183831   -0.183831         6.132681   -0.132681
    9 C             6.163754   -0.163754         6.085631   -0.085631
   10 C             6.183661   -0.183661         6.085737   -0.085737
   11 C             6.211595   -0.211595         6.135679   -0.135679
   12 H             0.753212    0.246788         0.845906    0.154094
   13 H             0.762855    0.237145         0.859446    0.140554
   14 H             0.752175    0.247825         0.850255    0.149745
   15 H             0.776522    0.223478         0.869417    0.130583
   16 H             0.781649    0.218351         0.866481    0.133519
   17 H             0.786123    0.213877         0.869594    0.130406

          -------------------------------
          BOND ORDER AND VALENCE ANALYSIS     BOND ORDER THRESHOLD=0.050
          -------------------------------

                   BOND                       BOND                       BOND
  ATOM PAIR DIST  ORDER      ATOM PAIR DIST  ORDER      ATOM PAIR DIST  ORDER
    1   2  1.207  1.813        2   3  1.377  0.746        2   4  1.459  1.044
    3   5  1.376  0.722        4   6  1.336  1.742        4  12  1.069  0.919
    5   7  1.389  1.344        5   8  1.384  1.420        5  11  2.756  0.085
    6   7  1.452  1.069        6  13  1.073  0.930        7   9  1.397  1.359
    7  10  2.782  0.086        8   9  2.789  0.097        8  10  1.382  1.469
    8  14  1.070  0.917        9  11  1.380  1.497        9  15  1.073  0.930
   10  11  1.396  1.402       10  16  1.072  0.934       11  17  1.072  0.937

                       TOTAL       BONDED        FREE
      ATOM            VALENCE     VALENCE     VALENCE
    1 O                 1.897       1.897       0.000
    2 C                 3.609       3.609      -0.000
    3 O                 1.499       1.499      -0.000
    4 C                 3.760       3.760      -0.000
    5 C                 3.571       3.571      -0.000
    6 C                 3.749       3.749       0.000
    7 C                 3.784       3.784      -0.000
    8 C                 3.858       3.858      -0.000
    9 C                 3.895       3.895       0.000
   10 C                 3.854       3.854      -0.000
   11 C                 3.859       3.859      -0.000
   12 H                 0.919       0.919      -0.000
   13 H                 0.919       0.919       0.000
   14 H                 0.914       0.914      -0.000
   15 H                 0.924       0.924       0.000
   16 H                 0.928       0.928       0.000
   17 H                 0.930       0.930      -0.000

          ---------------------
          ELECTROSTATIC MOMENTS
          ---------------------

 POINT   1           X           Y           Z (BOHR)    CHARGE
                 0.101017   -0.051306   -0.029901       -0.00 (A.U.)
         DX          DY          DZ         /D/  (DEBYE)
     5.352026   -3.421953    0.023167    6.352518
 ...... END OF PROPERTY EVALUATION ......
 STEP CPU TIME =     0.09 TOTAL CPU TIME =      416.7 (    6.9 MIN)
 TOTAL WALL CLOCK TIME=      418.6 SECONDS, CPU UTILIZATION IS  99.54%
  $VIB   
          IVIB=   0 IATOM=   0 ICOORD=   0 E=     -493.8389576478
  1.477901223E-05-4.241806088E-06 5.754557008E-04-6.746794581E-07-6.312754838E-06
  1.795417759E-04-1.165254452E-06 4.805186588E-06-9.542404103E-05-3.701911904E-06
 -1.947506305E-06-6.056935940E-05 3.927528583E-07-3.680455138E-06-1.454903216E-04
  1.596814123E-06 2.335118991E-06-1.681830977E-04 4.712279972E-06-3.124624556E-06
 -1.034942382E-04 3.166893333E-06 7.195824992E-07-1.848207400E-04-4.800244915E-06
  2.704006352E-06 6.747531684E-05-3.758675264E-06-4.443023083E-06-2.552911951E-05
 -8.221908423E-06 5.423414809E-06 1.432063603E-04 1.694406087E-06-1.669325122E-06
 -9.827057514E-05 2.090008365E-05 1.183584825E-05-3.066191486E-04 1.067414077E-05
 -1.187827616E-06-2.728638472E-04-1.190354929E-05 3.494304696E-06 1.512162528E-04
  6.469515084E-07-8.890065053E-06-1.952389008E-05-2.433711679E-05 4.179925830E-06
  3.638929718E-04
  5.352026422E+00-3.421953427E+00 2.316678501E-02
 ......END OF GEOMETRY SEARCH......
 STEP CPU TIME =     0.01 TOTAL CPU TIME =      416.7 (    6.9 MIN)
 TOTAL WALL CLOCK TIME=      418.7 SECONDS, CPU UTILIZATION IS  99.54%
                580000  WORDS OF DYNAMIC MEMORY USED
 EXECUTION OF GAMESS TERMINATED NORMALLY Wed Mar  1 17:11:14 2023
 DDI: 263640 bytes (0.3 MB / 0 MWords) used by master data server.

 ----------------------------------------
 CPU timing information for all processes
 ========================================
 0: 329.513 + 87.316 = 416.829
 1: 404.147 + 16.614 = 420.762
 ----------------------------------------
----- accounting info -----
Files used on the master node glados12.cerit-sc.cz were:
-rw------- 1 wrojasv meta      1200 Mar  1 17:04 /scratch.ssd/wrojasv/job_14595088.meta-pbs.metacentrum.cz/tmp/coumarin.F05
-rw------- 1 wrojasv meta 154453728 Mar  1 17:11 /scratch.ssd/wrojasv/job_14595088.meta-pbs.metacentrum.cz/tmp/coumarin.F08
-rw------- 1 wrojasv meta   2454000 Mar  1 17:11 /scratch.ssd/wrojasv/job_14595088.meta-pbs.metacentrum.cz/tmp/coumarin.F10
-rw------- 1 wrojasv meta        21 Mar  1 17:04 /scratch.ssd/wrojasv/job_14595088.meta-pbs.metacentrum.cz/tmp/coumarin.nodes.mpd
Files used on node glados12.cerit-sc.cz were:
-rw------- 1 wrojasv meta 21 Mar  1 17:04 /scratch.ssd/wrojasv/job_14595088.meta-pbs.metacentrum.cz/tmp/coumarin.nodes.mpd
Wed Mar  1 17:11:20 CET 2023
3.4u 3.8s 7:10.65 1.6% 0+0k 304+2928io 14pf+0w
